ITEM: TIMESTEP
0
ITEM: NUMBER OF ATOMS
5
ITEM: BOX BOUNDS mm mm mm
-1.0000000000000000e-03 1.0000000000000000e-03
-1.0000000000000000e-03 1.0000000000000000e-03
-1.0000000000000000e-03 1.0000000000000000e-03
ITEM: ATOMS id x y z 
1 -1.25e-05 0.000100364 0.000114185 
2 -7.5e-06 0.000100364 0.000114185 
3 -2.5e-06 0.000100364 0.000114185 
4 2.5e-06 0.000100364 0.000114185 
5 7.5e-06 0.000100364 0.000114185 
ITEM: TIMESTEP
10
ITEM: NUMBER OF ATOMS
5
ITEM: BOX BOUNDS mm mm mm
-1.0000000000000000e-03 1.0000000000000000e-03
-1.0000000000000000e-03 1.0000000000000000e-03
-1.0000000000000000e-03 1.0000000000000000e-03
ITEM: ATOMS id x y z 
1 -1.2402e-05 0.000100206 0.000114061 
2 -7.62488e-06 0.000100184 0.000114059 
3 -2.38118e-06 0.000100267 0.00011396 
4 2.65989e-06 0.000100088 0.000114181 
5 7.49658e-06 0.000100255 0.000114 
ITEM: TIMESTEP
20
ITEM: NUMBER OF ATOMS
5
ITEM: BOX BOUNDS mm mm mm
-1.0000000000000000e-03 1.0000000000000000e-03
-1.0000000000000000e-03 1.0000000000000000e-03
-1.0000000000000000e-03 1.0000000000000000e-03
ITEM: ATOMS id x y z 
1 -1.23028e-05 9.97488e-05 0.000113684 
2 -7.74236e-06 9.97059e-05 0.00011368 
3 -2.26485e-06 9.98573e-05 0.000113483 
4 2.81395e-06 9.95307e-05 0.000113921 
5 7.49142e-06 9.98369e-05 0.000113563 
ITEM: TIMESTEP
30
ITEM: NUMBER OF ATOMS
5
ITEM: BOX BOUNDS mm mm mm
-1.0000000000000000e-03 1.0000000000000000e-03
-1.0000000000000000e-03 1.0000000000000000e-03
-1.0000000000000000e-03 1.0000000000000000e-03
ITEM: ATOMS id x y z 
1 -1.22025e-05 9.91367e-05 0.000113096 
2 -7.85228e-06 9.9076e-05 0.000113088 
3 -2.1511e-06 9.92804e-05 0.000112794 
4 2.96211e-06 9.88402e-05 0.000113449 
5 7.48465e-06 9.92556e-05 0.000112916 
ITEM: TIMESTEP
40
ITEM: NUMBER OF ATOMS
5
ITEM: BOX BOUNDS mm mm mm
-1.0000000000000000e-03 1.0000000000000000e-03
-1.0000000000000000e-03 1.0000000000000000e-03
-1.0000000000000000e-03 1.0000000000000000e-03
ITEM: ATOMS id x y z 
1 -1.21015e-05 9.85561e-05 0.000112419 
2 -7.95462e-06 9.84782e-05 0.000112407 
3 -2.04002e-06 9.87327e-05 0.000112019 
4 3.10432e-06 9.81857e-05 0.000112884 
5 7.47641e-06 9.8704e-05 0.000112181 
ITEM: TIMESTEP
50
ITEM: NUMBER OF ATOMS
5
ITEM: BOX BOUNDS mm mm mm
-1.0000000000000000e-03 1.0000000000000000e-03
-1.0000000000000000e-03 1.0000000000000000e-03
-1.0000000000000000e-03 1.0000000000000000e-03
ITEM: ATOMS id x y z 
1 -1.2e-05 9.81911e-05 0.000111864 
2 -8.04936e-06 9.80941e-05 0.000111851 
3 -1.9316e-06 9.84201e-05 0.000111378 
4 3.24059e-06 9.77197e-05 0.000112434 
5 7.46688e-06 9.83812e-05 0.000111574 
ITEM: TIMESTEP
60
ITEM: NUMBER OF ATOMS
5
ITEM: BOX BOUNDS mm mm mm
-1.0000000000000000e-03 1.0000000000000000e-03
-1.0000000000000000e-03 1.0000000000000000e-03
-1.0000000000000000e-03 1.0000000000000000e-03
ITEM: ATOMS id x y z 
1 -1.18982e-05 9.81891e-05 0.000111654 
2 -8.13636e-06 9.80673e-05 0.000111647 
3 -1.82585e-06 9.85163e-05 0.000111104 
4 3.37101e-06 9.75506e-05 0.000112314 
5 7.45619e-06 9.84522e-05 0.000111322 
ITEM: TIMESTEP
70
ITEM: NUMBER OF ATOMS
5
ITEM: BOX BOUNDS mm mm mm
-1.0000000000000000e-03 1.0000000000000000e-03
-1.0000000000000000e-03 1.0000000000000000e-03
-1.0000000000000000e-03 1.0000000000000000e-03
ITEM: ATOMS id x y z 
1 -1.17965e-05 9.86274e-05 0.00011189 
2 -8.21557e-06 9.84711e-05 0.000111899 
3 -1.72277e-06 9.91216e-05 0.000111301 
4 3.4956e-06 9.77207e-05 0.000112628 
5 7.44439e-06 9.90107e-05 0.000111526 
ITEM: TIMESTEP
80
ITEM: NUMBER OF ATOMS
5
ITEM: BOX BOUNDS mm mm mm
-1.0000000000000000e-03 1.0000000000000000e-03
-1.0000000000000000e-03 1.0000000000000000e-03
-1.0000000000000000e-03 1.0000000000000000e-03
ITEM: ATOMS id x y z 
1 -1.16951e-05 9.94898e-05 0.000112482 
2 -8.28683e-06 9.92864e-05 0.000112516 
3 -1.62222e-06 0.00010023 0.000111867 
4 3.61444e-06 9.81963e-05 0.000113299 
5 7.43142e-06 0.000100048 0.000112088 
ITEM: TIMESTEP
90
ITEM: NUMBER OF ATOMS
5
ITEM: BOX BOUNDS mm mm mm
-1.0000000000000000e-03 1.0000000000000000e-03
-1.0000000000000000e-03 1.0000000000000000e-03
-1.0000000000000000e-03 1.0000000000000000e-03
ITEM: ATOMS id x y z 
1 -1.15943e-05 0.000100661 0.000113213 
2 -8.35e-06 0.000100399 0.000113281 
3 -1.52413e-06 0.000101711 0.000112571 
4 3.72768e-06 9.8881e-05 0.000114125 
5 7.41721e-06 0.000101439 0.000112785 
ITEM: TIMESTEP
100
ITEM: NUMBER OF ATOMS
5
ITEM: BOX BOUNDS mm mm mm
-1.0000000000000000e-03 1.0000000000000000e-03
-1.0000000000000000e-03 1.0000000000000000e-03
-1.0000000000000000e-03 1.0000000000000000e-03
ITEM: ATOMS id x y z 
1 -1.14943e-05 0.000101937 0.00011389 
2 -8.40497e-06 0.000101612 0.000113993 
3 -1.4284e-06 0.000103315 0.000113216 
4 3.83551e-06 9.9642e-05 0.000114903 
5 7.40144e-06 0.000102949 0.000113423 
ITEM: TIMESTEP
110
ITEM: NUMBER OF ATOMS
5
ITEM: BOX BOUNDS mm mm mm
-1.0000000000000000e-03 1.0000000000000000e-03
-1.0000000000000000e-03 1.0000000000000000e-03
-1.0000000000000000e-03 1.0000000000000000e-03
ITEM: ATOMS id x y z 
1 -1.13953e-05 0.000103057 0.000114447 
2 -8.45158e-06 0.000102681 0.00011458 
3 -1.335e-06 0.000104708 0.000113763 
4 3.93822e-06 0.000100337 0.00011553 
5 7.38387e-06 0.000104263 0.000113957 
ITEM: TIMESTEP
120
ITEM: NUMBER OF ATOMS
5
ITEM: BOX BOUNDS mm mm mm
-1.0000000000000000e-03 1.0000000000000000e-03
-1.0000000000000000e-03 1.0000000000000000e-03
-1.0000000000000000e-03 1.0000000000000000e-03
ITEM: ATOMS id x y z 
1 -1.12976e-05 0.000103772 0.000114948 
2 -8.48962e-06 0.000103372 0.000115096 
3 -1.2438e-06 0.000105564 0.000114316 
4 4.03593e-06 0.00010084 0.000116008 
5 7.36435e-06 0.000105076 0.000114482 
ITEM: TIMESTEP
130
ITEM: NUMBER OF ATOMS
5
ITEM: BOX BOUNDS mm mm mm
-1.0000000000000000e-03 1.0000000000000000e-03
-1.0000000000000000e-03 1.0000000000000000e-03
-1.0000000000000000e-03 1.0000000000000000e-03
ITEM: ATOMS id x y z 
1 -1.12016e-05 0.000103941 0.000115495 
2 -8.51895e-06 0.000103555 0.000115636 
3 -1.15473e-06 0.000105702 0.000115014 
4 4.12873e-06 0.000101083 0.000116391 
5 7.34286e-06 0.000105218 0.000115122 
ITEM: TIMESTEP
140
ITEM: NUMBER OF ATOMS
5
ITEM: BOX BOUNDS mm mm mm
-1.0000000000000000e-03 1.0000000000000000e-03
-1.0000000000000000e-03 1.0000000000000000e-03
-1.0000000000000000e-03 1.0000000000000000e-03
ITEM: ATOMS id x y z 
1 -1.11075e-05 0.000103602 0.000116138 
2 -8.5394e-06 0.000103266 0.000116254 
3 -1.06786e-06 0.000105178 0.000115911 
4 4.2167e-06 0.000101079 0.000116727 
5 7.31955e-06 0.000104738 0.000115933 
ITEM: TIMESTEP
150
ITEM: NUMBER OF ATOMS
5
ITEM: BOX BOUNDS mm mm mm
-1.0000000000000000e-03 1.0000000000000000e-03
-1.0000000000000000e-03 1.0000000000000000e-03
-1.0000000000000000e-03 1.0000000000000000e-03
ITEM: ATOMS id x y z 
1 -1.10158e-05 0.000102946 0.000116842 
2 -8.55085e-06 0.000102681 0.00011692 
3 -9.83236e-07 0.000104248 0.000116945 
4 4.29983e-06 0.000100915 0.000117022 
5 7.29462e-06 0.000103875 0.000116857 
ITEM: TIMESTEP
160
ITEM: NUMBER OF ATOMS
5
ITEM: BOX BOUNDS mm mm mm
-1.0000000000000000e-03 1.0000000000000000e-03
-1.0000000000000000e-03 1.0000000000000000e-03
-1.0000000000000000e-03 1.0000000000000000e-03
ITEM: ATOMS id x y z 
1 -1.09269e-05 0.00010221 0.000117512 
2 -8.55312e-06 0.000102022 0.000117549 
3 -9.01028e-07 0.000103216 0.000117974 
4 4.37793e-06 0.000100712 0.000117248 
5 7.26862e-06 0.000102916 0.000117766 
ITEM: TIMESTEP
170
ITEM: NUMBER OF ATOMS
5
ITEM: BOX BOUNDS mm mm mm
-1.0000000000000000e-03 1.0000000000000000e-03
-1.0000000000000000e-03 1.0000000000000000e-03
-1.0000000000000000e-03 1.0000000000000000e-03
ITEM: ATOMS id x y z 
1 -1.08414e-05 0.000101573 0.000118039 
2 -8.54596e-06 0.000101457 0.000118037 
3 -8.21311e-07 0.000102294 0.000118833 
4 4.45062e-06 0.000100582 0.000117362 
5 7.24222e-06 0.000102065 0.000118515 
ITEM: TIMESTEP
180
ITEM: NUMBER OF ATOMS
5
ITEM: BOX BOUNDS mm mm mm
-1.0000000000000000e-03 1.0000000000000000e-03
-1.0000000000000000e-03 1.0000000000000000e-03
-1.0000000000000000e-03 1.0000000000000000e-03
ITEM: ATOMS id x y z 
1 -1.07595e-05 0.000101116 0.000118332 
2 -8.52926e-06 0.000101065 0.000118297 
3 -7.44087e-07 0.000101556 0.000119384 
4 4.5177e-06 0.000100605 0.000117323 
5 7.21592e-06 0.000101401 0.000118983 
ITEM: TIMESTEP
190
ITEM: NUMBER OF ATOMS
5
ITEM: BOX BOUNDS mm mm mm
-1.0000000000000000e-03 1.0000000000000000e-03
-1.0000000000000000e-03 1.0000000000000000e-03
-1.0000000000000000e-03 1.0000000000000000e-03
ITEM: ATOMS id x y z 
1 -1.06817e-05 0.000100853 0.000118344 
2 -8.50298e-06 0.000100863 0.000118282 
3 -6.69392e-07 0.000100981 0.000119554 
4 4.57919e-06 0.000100838 0.000117109 
5 7.18989e-06 0.000100915 0.000119108 
ITEM: TIMESTEP
200
ITEM: NUMBER OF ATOMS
5
ITEM: BOX BOUNDS mm mm mm
-1.0000000000000000e-03 1.0000000000000000e-03
-1.0000000000000000e-03 1.0000000000000000e-03
-1.0000000000000000e-03 1.0000000000000000e-03
ITEM: ATOMS id x y z 
1 -1.06081e-05 0.000100772 0.000118082 
2 -8.46713e-06 0.000100848 0.000117998 
3 -5.97162e-07 0.000100525 0.000119354 
4 4.63527e-06 0.000101324 0.000116715 
5 7.16408e-06 0.00010057 0.0001189 
ITEM: TIMESTEP
210
ITEM: NUMBER OF ATOMS
5
ITEM: BOX BOUNDS mm mm mm
-1.0000000000000000e-03 1.0000000000000000e-03
-1.0000000000000000e-03 1.0000000000000000e-03
-1.0000000000000000e-03 1.0000000000000000e-03
ITEM: ATOMS id x y z 
1 -1.0539e-05 0.000100856 0.000117603 
2 -8.42174e-06 0.000101004 0.000117497 
3 -5.27387e-07 0.000100159 0.000118875 
4 4.68643e-06 0.000102071 0.000116155 
5 7.13815e-06 0.000100339 0.000118438 
ITEM: TIMESTEP
220
ITEM: NUMBER OF ATOMS
5
ITEM: BOX BOUNDS mm mm mm
-1.0000000000000000e-03 1.0000000000000000e-03
-1.0000000000000000e-03 1.0000000000000000e-03
-1.0000000000000000e-03 1.0000000000000000e-03
ITEM: ATOMS id x y z 
1 -1.04742e-05 0.000101061 0.000116985 
2 -8.36701e-06 0.00010129 0.000116855 
3 -4.59915e-07 9.98663e-05 0.000118233 
4 4.73318e-06 0.000103011 0.000115467 
5 7.11159e-06 0.000100195 0.000117824 
ITEM: TIMESTEP
230
ITEM: NUMBER OF ATOMS
5
ITEM: BOX BOUNDS mm mm mm
-1.0000000000000000e-03 1.0000000000000000e-03
-1.0000000000000000e-03 1.0000000000000000e-03
-1.0000000000000000e-03 1.0000000000000000e-03
ITEM: ATOMS id x y z 
1 -1.04138e-05 0.000101293 0.000116292 
2 -8.30326e-06 0.0001016 0.00011614 
3 -3.94587e-07 9.96192e-05 0.000117515 
4 4.77597e-06 0.000103951 0.000114711 
5 7.08392e-06 0.000100092 0.000117134 
ITEM: TIMESTEP
240
ITEM: NUMBER OF ATOMS
5
ITEM: BOX BOUNDS mm mm mm
-1.0000000000000000e-03 1.0000000000000000e-03
-1.0000000000000000e-03 1.0000000000000000e-03
-1.0000000000000000e-03 1.0000000000000000e-03
ITEM: ATOMS id x y z 
1 -1.03575e-05 0.000101403 0.000115559 
2 -8.23089e-06 0.000101772 0.000115389 
3 -3.31225e-07 9.93683e-05 0.000116742 
4 4.81516e-06 0.000104596 0.000113962 
5 7.05489e-06 9.99491e-05 0.000116391 
ITEM: TIMESTEP
250
ITEM: NUMBER OF ATOMS
5
ITEM: BOX BOUNDS mm mm mm
-1.0000000000000000e-03 1.0000000000000000e-03
-1.0000000000000000e-03 1.0000000000000000e-03
-1.0000000000000000e-03 1.0000000000000000e-03
ITEM: ATOMS id x y z 
1 -1.0305e-05 0.000101233 0.000114769 
2 -8.15045e-06 0.00010163 0.000114595 
3 -2.69798e-07 9.90495e-05 0.000115864 
4 4.8509e-06 0.000104643 0.000113273 
5 7.02439e-06 9.96775e-05 0.000115555 
ITEM: TIMESTEP
260
ITEM: NUMBER OF ATOMS
5
ITEM: BOX BOUNDS mm mm mm
-1.0000000000000000e-03 1.0000000000000000e-03
-1.0000000000000000e-03 1.0000000000000000e-03
-1.0000000000000000e-03 1.0000000000000000e-03
ITEM: ATOMS id x y z 
1 -1.02559e-05 0.00010069 0.000113857 
2 -8.06245e-06 0.000101074 0.000113693 
3 -2.10278e-07 9.8609e-05 0.000114793 
4 4.88328e-06 0.000103944 0.00011262 
5 6.99253e-06 9.92125e-05 0.000114543 
ITEM: TIMESTEP
270
ITEM: NUMBER OF ATOMS
5
ITEM: BOX BOUNDS mm mm mm
-1.0000000000000000e-03 1.0000000000000000e-03
-1.0000000000000000e-03 1.0000000000000000e-03
-1.0000000000000000e-03 1.0000000000000000e-03
ITEM: ATOMS id x y z 
1 -1.02101e-05 9.97985e-05 0.000112732 
2 -7.96739e-06 0.000100134 0.000112593 
3 -1.52699e-07 9.80307e-05 0.000113443 
4 4.91247e-06 0.000102586 0.000111899 
5 6.95945e-06 9.85498e-05 0.000113272 
ITEM: TIMESTEP
280
ITEM: NUMBER OF ATOMS
5
ITEM: BOX BOUNDS mm mm mm
-1.0000000000000000e-03 1.0000000000000000e-03
-1.0000000000000000e-03 1.0000000000000000e-03
-1.0000000000000000e-03 1.0000000000000000e-03
ITEM: ATOMS id x y z 
1 -1.01674e-05 9.86999e-05 0.000111368 
2 -7.86583e-06 9.89665e-05 0.00011126 
3 -9.71532e-08 9.73577e-05 0.000111817 
4 4.93844e-06 0.00010086 0.000111019 
5 6.92546e-06 9.77603e-05 0.000111736 
ITEM: TIMESTEP
290
ITEM: NUMBER OF ATOMS
5
ITEM: BOX BOUNDS mm mm mm
-1.0000000000000000e-03 1.0000000000000000e-03
-1.0000000000000000e-03 1.0000000000000000e-03
-1.0000000000000000e-03 1.0000000000000000e-03
ITEM: ATOMS id x y z 
1 -1.01276e-05 9.76101e-05 0.000109899 
2 -7.7583e-06 9.78069e-05 0.000109824 
3 -4.37563e-08 9.6705e-05 0.000110085 
4 4.96089e-06 9.91311e-05 0.000110041 
5 6.89131e-06 9.69865e-05 0.000110096 
ITEM: TIMESTEP
300
ITEM: NUMBER OF ATOMS
5
ITEM: BOX BOUNDS mm mm mm
-1.0000000000000000e-03 1.0000000000000000e-03
-1.0000000000000000e-03 1.0000000000000000e-03
-1.0000000000000000e-03 1.0000000000000000e-03
ITEM: ATOMS id x y z 
1 -1.00903e-05 9.67659e-05 0.000108666 
2 -7.6454e-06 9.69042e-05 0.000108619 
3 7.22779e-09 9.62529e-05 0.000108615 
4 4.9788e-06 9.7711e-05 0.000109235 
5 6.85849e-06 9.64228e-05 0.000108706 
ITEM: TIMESTEP
310
ITEM: NUMBER OF ATOMS
5
ITEM: BOX BOUNDS mm mm mm
-1.0000000000000000e-03 1.0000000000000000e-03
-1.0000000000000000e-03 1.0000000000000000e-03
-1.0000000000000000e-03 1.0000000000000000e-03
ITEM: ATOMS id x y z 
1 -1.00553e-05 9.6366e-05 0.00010809 
2 -7.52769e-06 9.64614e-05 0.000108065 
3 5.56908e-08 9.62e-05 0.000107842 
4 4.9905e-06 9.67892e-05 0.000108978 
5 6.82905e-06 9.62656e-05 0.000107993 
ITEM: TIMESTEP
320
ITEM: NUMBER OF ATOMS
5
ITEM: BOX BOUNDS mm mm mm
-1.0000000000000000e-03 1.0000000000000000e-03
-1.0000000000000000e-03 1.0000000000000000e-03
-1.0000000000000000e-03 1.0000000000000000e-03
ITEM: ATOMS id x y z 
1 -1.00222e-05 9.65098e-05 0.000108428 
2 -7.40577e-06 9.65752e-05 0.00010842 
3 1.01589e-07 9.66834e-05 0.000108026 
4 4.99514e-06 9.64021e-05 0.000109511 
5 6.80401e-06 9.66412e-05 0.000108213 
ITEM: TIMESTEP
330
ITEM: NUMBER OF ATOMS
5
ITEM: BOX BOUNDS mm mm mm
-1.0000000000000000e-03 1.0000000000000000e-03
-1.0000000000000000e-03 1.0000000000000000e-03
-1.0000000000000000e-03 1.0000000000000000e-03
ITEM: ATOMS id x y z 
1 -9.99049e-06 9.71591e-05 0.000109591 
2 -7.28018e-06 9.7203e-05 0.000109596 
3 1.45027e-07 9.77082e-05 0.000109065 
4 4.99358e-06 9.64484e-05 0.000110774 
5 6.78256e-06 9.75442e-05 0.000109268 
ITEM: TIMESTEP
340
ITEM: NUMBER OF ATOMS
5
ITEM: BOX BOUNDS mm mm mm
-1.0000000000000000e-03 1.0000000000000000e-03
-1.0000000000000000e-03 1.0000000000000000e-03
-1.0000000000000000e-03 1.0000000000000000e-03
ITEM: ATOMS id x y z 
1 -9.95999e-06 9.81562e-05 0.000111205 
2 -7.15138e-06 9.81825e-05 0.000111219 
3 1.86149e-07 9.91333e-05 0.000110564 
4 4.98764e-06 9.67525e-05 0.000112445 
5 6.76285e-06 9.88312e-05 0.000110776 
ITEM: TIMESTEP
350
ITEM: NUMBER OF ATOMS
5
ITEM: BOX BOUNDS mm mm mm
-1.0000000000000000e-03 1.0000000000000000e-03
-1.0000000000000000e-03 1.0000000000000000e-03
-1.0000000000000000e-03 1.0000000000000000e-03
ITEM: ATOMS id x y z 
1 -9.93023e-06 9.92836e-05 0.000112858 
2 -7.01979e-06 9.92934e-05 0.000112879 
3 2.2517e-07 0.000100711 0.000112102 
4 4.97881e-06 9.71502e-05 0.000114148 
5 6.74319e-06 0.000100265 0.000112321 
ITEM: TIMESTEP
360
ITEM: NUMBER OF ATOMS
5
ITEM: BOX BOUNDS mm mm mm
-1.0000000000000000e-03 1.0000000000000000e-03
-1.0000000000000000e-03 1.0000000000000000e-03
-1.0000000000000000e-03 1.0000000000000000e-03
ITEM: ATOMS id x y z 
1 -9.90081e-06 0.000100328 0.000114307 
2 -6.88583e-06 0.000100322 0.000114337 
3 2.6241e-07 0.000102152 0.000113453 
4 4.96786e-06 9.75486e-05 0.000115634 
5 6.72276e-06 0.00010158 0.000113675 
ITEM: TIMESTEP
370
ITEM: NUMBER OF ATOMS
5
ITEM: BOX BOUNDS mm mm mm
-1.0000000000000000e-03 1.0000000000000000e-03
-1.0000000000000000e-03 1.0000000000000000e-03
-1.0000000000000000e-03 1.0000000000000000e-03
ITEM: ATOMS id x y z 
1 -9.87142e-06 0.000101128 0.000115526 
2 -6.74981e-06 0.00010111 0.000115566 
3 2.98022e-07 0.000103199 0.000114628 
4 4.95509e-06 9.79311e-05 0.000116828 
5 6.70113e-06 0.000102547 0.000114832 
ITEM: TIMESTEP
380
ITEM: NUMBER OF ATOMS
5
ITEM: BOX BOUNDS mm mm mm
-1.0000000000000000e-03 1.0000000000000000e-03
-1.0000000000000000e-03 1.0000000000000000e-03
-1.0000000000000000e-03 1.0000000000000000e-03
ITEM: ATOMS id x y z 
1 -9.84178e-06 0.000101614 0.000116616 
2 -6.61209e-06 0.000101587 0.000116667 
3 3.32117e-07 0.000103718 0.000115762 
4 4.94058e-06 9.83236e-05 0.000117775 
5 6.67819e-06 0.000103046 0.000115913 
ITEM: TIMESTEP
390
ITEM: NUMBER OF ATOMS
5
ITEM: BOX BOUNDS mm mm mm
-1.0000000000000000e-03 1.0000000000000000e-03
-1.0000000000000000e-03 1.0000000000000000e-03
-1.0000000000000000e-03 1.0000000000000000e-03
ITEM: ATOMS id x y z 
1 -9.81164e-06 0.00010182 0.00011769 
2 -6.47297e-06 0.000101791 0.000117754 
3 3.64655e-07 0.000103748 0.000116976 
4 4.9244e-06 9.87558e-05 0.000118573 
5 6.65399e-06 0.000103115 0.000117036 
ITEM: TIMESTEP
400
ITEM: NUMBER OF ATOMS
5
ITEM: BOX BOUNDS mm mm mm
-1.0000000000000000e-03 1.0000000000000000e-03
-1.0000000000000000e-03 1.0000000000000000e-03
-1.0000000000000000e-03 1.0000000000000000e-03
ITEM: ATOMS id x y z 
1 -9.78082e-06 0.000101863 0.000118798 
2 -6.33289e-06 0.000101836 0.000118876 
3 3.95605e-07 0.000103473 0.000118296 
4 4.90653e-06 9.92388e-05 0.000119299 
5 6.62866e-06 0.000102917 0.000118231 
ITEM: TIMESTEP
410
ITEM: NUMBER OF ATOMS
5
ITEM: BOX BOUNDS mm mm mm
-1.0000000000000000e-03 1.0000000000000000e-03
-1.0000000000000000e-03 1.0000000000000000e-03
-1.0000000000000000e-03 1.0000000000000000e-03
ITEM: ATOMS id x y z 
1 -9.74917e-06 0.000101871 0.000119891 
2 -6.19213e-06 0.000101849 0.000119985 
3 4.24903e-07 0.000103112 0.000119629 
4 4.88695e-06 9.97627e-05 0.000119964 
5 6.60254e-06 0.000102645 0.000119425 
ITEM: TIMESTEP
420
ITEM: NUMBER OF ATOMS
5
ITEM: BOX BOUNDS mm mm mm
-1.0000000000000000e-03 1.0000000000000000e-03
-1.0000000000000000e-03 1.0000000000000000e-03
-1.0000000000000000e-03 1.0000000000000000e-03
ITEM: ATOMS id x y z 
1 -9.71651e-06 0.000101921 0.000120825 
2 -6.05102e-06 0.000101904 0.000120934 
3 4.52408e-07 0.000102811 0.00012079 
4 4.86524e-06 0.000100303 0.000120494 
5 6.57638e-06 0.000102431 0.000120455 
ITEM: TIMESTEP
430
ITEM: NUMBER OF ATOMS
5
ITEM: BOX BOUNDS mm mm mm
-1.0000000000000000e-03 1.0000000000000000e-03
-1.0000000000000000e-03 1.0000000000000000e-03
-1.0000000000000000e-03 1.0000000000000000e-03
ITEM: ATOMS id x y z 
1 -9.68276e-06 0.000102028 0.000121404 
2 -5.90983e-06 0.000102011 0.000121524 
3 4.77925e-07 0.000102611 0.000121559 
4 4.84043e-06 0.000100838 0.000120751 
5 6.55157e-06 0.000102317 0.000121122 
ITEM: TIMESTEP
440
ITEM: NUMBER OF ATOMS
5
ITEM: BOX BOUNDS mm mm mm
-1.0000000000000000e-03 1.0000000000000000e-03
-1.0000000000000000e-03 1.0000000000000000e-03
-1.0000000000000000e-03 1.0000000000000000e-03
ITEM: ATOMS id x y z 
1 -9.64782e-06 0.000102179 0.000121463 
2 -5.76884e-06 0.000102154 0.000121589 
3 5.01362e-07 0.000102486 0.00012176 
4 4.81097e-06 0.000101369 0.000120602 
5 6.52988e-06 0.00010229 0.000121266 
ITEM: TIMESTEP
450
ITEM: NUMBER OF ATOMS
5
ITEM: BOX BOUNDS mm mm mm
-1.0000000000000000e-03 1.0000000000000000e-03
-1.0000000000000000e-03 1.0000000000000000e-03
-1.0000000000000000e-03 1.0000000000000000e-03
ITEM: ATOMS id x y z 
1 -9.61167e-06 0.00010238 0.000120951 
2 -5.62826e-06 0.000102337 0.000121077 
3 5.2267e-07 0.000102421 0.000121348 
4 4.77548e-06 0.000101938 0.000119994 
5 6.513e-06 0.000102341 0.000120845 
ITEM: TIMESTEP
460
ITEM: NUMBER OF ATOMS
5
ITEM: BOX BOUNDS mm mm mm
-1.0000000000000000e-03 1.0000000000000000e-03
-1.0000000000000000e-03 1.0000000000000000e-03
-1.0000000000000000e-03 1.0000000000000000e-03
ITEM: ATOMS id x y z 
1 -9.57417e-06 0.000102666 0.000119961 
2 -5.48837e-06 0.000102596 0.000120082 
3 5.41836e-07 0.000102429 0.000120431 
4 4.73328e-06 0.000102609 0.000118987 
5 6.50168e-06 0.000102489 0.000119954 
ITEM: TIMESTEP
470
ITEM: NUMBER OF ATOMS
5
ITEM: BOX BOUNDS mm mm mm
-1.0000000000000000e-03 1.0000000000000000e-03
-1.0000000000000000e-03 1.0000000000000000e-03
-1.0000000000000000e-03 1.0000000000000000e-03
ITEM: ATOMS id x y z 
1 -9.53525e-06 0.000103055 0.000118684 
2 -5.34932e-06 0.000102952 0.000118799 
3 5.58897e-07 0.000102524 0.000119218 
4 4.68501e-06 0.000103405 0.000117729 
5 6.49543e-06 0.000102738 0.000118784 
ITEM: TIMESTEP
480
ITEM: NUMBER OF ATOMS
5
ITEM: BOX BOUNDS mm mm mm
-1.0000000000000000e-03 1.0000000000000000e-03
-1.0000000000000000e-03 1.0000000000000000e-03
-1.0000000000000000e-03 1.0000000000000000e-03
ITEM: ATOMS id x y z 
1 -9.49497e-06 0.000103479 0.000117329 
2 -5.21137e-06 0.000103344 0.000117438 
3 5.73966e-07 0.000102661 0.000117924 
4 4.63218e-06 0.000104229 0.000116391 
5 6.49279e-06 0.000103024 0.000117535 
ITEM: TIMESTEP
490
ITEM: NUMBER OF ATOMS
5
ITEM: BOX BOUNDS mm mm mm
-1.0000000000000000e-03 1.0000000000000000e-03
-1.0000000000000000e-03 1.0000000000000000e-03
-1.0000000000000000e-03 1.0000000000000000e-03
ITEM: ATOMS id x y z 
1 -9.45333e-06 0.000103759 0.000116047 
2 -5.07465e-06 0.000103599 0.000116149 
3 5.8729e-07 0.000102705 0.000116692 
4 4.57641e-06 0.000104846 0.000115125 
5 6.49204e-06 0.000103189 0.000116351 
ITEM: TIMESTEP
500
ITEM: NUMBER OF ATOMS
5
ITEM: BOX BOUNDS mm mm mm
-1.0000000000000000e-03 1.0000000000000000e-03
-1.0000000000000000e-03 1.0000000000000000e-03
-1.0000000000000000e-03 1.0000000000000000e-03
ITEM: ATOMS id x y z 
1 -9.41034e-06 0.000103661 0.000114898 
2 -4.93928e-06 0.000103494 0.000114989 
3 5.99077e-07 0.000102478 0.000115563 
4 4.51883e-06 0.000104958 0.000114008 
5 6.4921e-06 0.000103028 0.00011528 
ITEM: TIMESTEP
510
ITEM: NUMBER OF ATOMS
5
ITEM: BOX BOUNDS mm mm mm
-1.0000000000000000e-03 1.0000000000000000e-03
-1.0000000000000000e-03 1.0000000000000000e-03
-1.0000000000000000e-03 1.0000000000000000e-03
ITEM: ATOMS id x y z 
1 -9.36601e-06 0.000103027 0.000113835 
2 -4.80539e-06 0.000102871 0.000113909 
3 6.09482e-07 0.000101852 0.000114475 
4 4.45991e-06 0.000104367 0.000113018 
5 6.49242e-06 0.000102405 0.000114272 
ITEM: TIMESTEP
520
ITEM: NUMBER OF ATOMS
5
ITEM: BOX BOUNDS mm mm mm
-1.0000000000000000e-03 1.0000000000000000e-03
-1.0000000000000000e-03 1.0000000000000000e-03
-1.0000000000000000e-03 1.0000000000000000e-03
ITEM: ATOMS id x y z 
1 -9.32037e-06 0.000101869 0.000112731 
2 -4.67314e-06 0.000101741 0.000112781 
3 6.18547e-07 0.000100831 0.000113305 
4 4.39987e-06 0.000103099 0.000112029 
5 6.49301e-06 0.000101333 0.000113206 
ITEM: TIMESTEP
530
ITEM: NUMBER OF ATOMS
5
ITEM: BOX BOUNDS mm mm mm
-1.0000000000000000e-03 1.0000000000000000e-03
-1.0000000000000000e-03 1.0000000000000000e-03
-1.0000000000000000e-03 1.0000000000000000e-03
ITEM: ATOMS id x y z 
1 -9.27351e-06 0.000100381 0.000111475 
2 -4.54277e-06 0.000100289 0.000111497 
3 6.26208e-07 9.95577e-05 0.000111962 
4 4.3386e-06 0.000101407 0.000110914 
5 6.49424e-06 9.99765e-05 0.000111984 
ITEM: TIMESTEP
540
ITEM: NUMBER OF ATOMS
5
ITEM: BOX BOUNDS mm mm mm
-1.0000000000000000e-03 1.0000000000000000e-03
-1.0000000000000000e-03 1.0000000000000000e-03
-1.0000000000000000e-03 1.0000000000000000e-03
ITEM: ATOMS id x y z 
1 -9.22555e-06 9.88542e-05 0.000110108 
2 -4.4145e-06 9.87997e-05 0.000110102 
3 6.3231e-07 9.82609e-05 0.000110505 
4 4.27592e-06 9.96571e-05 0.00010969 
5 6.49672e-06 9.85907e-05 0.000110653 
ITEM: TIMESTEP
550
ITEM: NUMBER OF ATOMS
5
ITEM: BOX BOUNDS mm mm mm
-1.0000000000000000e-03 1.0000000000000000e-03
-1.0000000000000000e-03 1.0000000000000000e-03
-1.0000000000000000e-03 1.0000000000000000e-03
ITEM: ATOMS id x y z 
1 -9.17652e-06 9.75826e-05 0.000108894 
2 -4.28849e-06 9.75637e-05 0.000108863 
3 6.36673e-07 9.71882e-05 0.000109207 
4 4.21161e-06 9.82016e-05 0.000108606 
5 6.50117e-06 9.74352e-05 0.000109465 
ITEM: TIMESTEP
560
ITEM: NUMBER OF ATOMS
5
ITEM: BOX BOUNDS mm mm mm
-1.0000000000000000e-03 1.0000000000000000e-03
-1.0000000000000000e-03 1.0000000000000000e-03
-1.0000000000000000e-03 1.0000000000000000e-03
ITEM: ATOMS id x y z 
1 -9.12652e-06 9.67893e-05 0.000108236 
2 -4.16489e-06 9.68059e-05 0.000108184 
3 6.39124e-07 9.65431e-05 0.000108468 
4 4.14563e-06 9.7291e-05 0.000108056 
5 6.50811e-06 9.67112e-05 0.000108804 
ITEM: TIMESTEP
570
ITEM: NUMBER OF ATOMS
5
ITEM: BOX BOUNDS mm mm mm
-1.0000000000000000e-03 1.0000000000000000e-03
-1.0000000000000000e-03 1.0000000000000000e-03
-1.0000000000000000e-03 1.0000000000000000e-03
ITEM: ATOMS id x y z 
1 -9.07553e-06 9.65736e-05 0.000108434 
2 -4.04385e-06 9.66304e-05 0.000108366 
3 6.39558e-07 9.64296e-05 0.000108586 
4 4.07809e-06 9.70255e-05 0.000108336 
5 6.51768e-06 9.65114e-05 0.000108954 
ITEM: TIMESTEP
580
ITEM: NUMBER OF ATOMS
5
ITEM: BOX BOUNDS mm mm mm
-1.0000000000000000e-03 1.0000000000000000e-03
-1.0000000000000000e-03 1.0000000000000000e-03
-1.0000000000000000e-03 1.0000000000000000e-03
ITEM: ATOMS id x y z 
1 -9.02365e-06 9.68891e-05 0.000109472 
2 -3.92548e-06 9.69959e-05 0.000109389 
3 6.37905e-07 9.6818e-05 0.000109541 
4 4.00928e-06 9.73467e-05 0.000109426 
5 6.52984e-06 9.67962e-05 0.0001099 
ITEM: TIMESTEP
590
ITEM: NUMBER OF ATOMS
5
ITEM: BOX BOUNDS mm mm mm
-1.0000000000000000e-03 1.0000000000000000e-03
-1.0000000000000000e-03 1.0000000000000000e-03
-1.0000000000000000e-03 1.0000000000000000e-03
ITEM: ATOMS id x y z 
1 -8.97091e-06 9.75725e-05 0.000111022 
2 -3.80989e-06 9.77402e-05 0.000110925 
3 6.34215e-07 9.75617e-05 0.00011101 
4 3.93955e-06 9.80732e-05 0.000111003 
5 6.54436e-06 9.74175e-05 0.000111336 
ITEM: TIMESTEP
600
ITEM: NUMBER OF ATOMS
5
ITEM: BOX BOUNDS mm mm mm
-1.0000000000000000e-03 1.0000000000000000e-03
-1.0000000000000000e-03 1.0000000000000000e-03
-1.0000000000000000e-03 1.0000000000000000e-03
ITEM: ATOMS id x y z 
1 -8.9173e-06 9.84114e-05 0.000112667 
2 -3.69715e-06 9.86457e-05 0.000112555 
3 6.28544e-07 9.8458e-05 0.000112578 
4 3.86932e-06 9.89719e-05 0.000112662 
5 6.56088e-06 9.81824e-05 0.000112864 
ITEM: TIMESTEP
610
ITEM: NUMBER OF ATOMS
5
ITEM: BOX BOUNDS mm mm mm
-1.0000000000000000e-03 1.0000000000000000e-03
-1.0000000000000000e-03 1.0000000000000000e-03
-1.0000000000000000e-03 1.0000000000000000e-03
ITEM: ATOMS id x y z 
1 -8.86282e-06 9.92132e-05 0.000114119 
2 -3.58745e-06 9.95076e-05 0.000113995 
3 6.20897e-07 9.93126e-05 0.000113953 
4 3.7991e-06 9.9826e-05 0.000114134 
5 6.57899e-06 9.89161e-05 0.000114202 
ITEM: TIMESTEP
620
ITEM: NUMBER OF ATOMS
5
ITEM: BOX BOUNDS mm mm mm
-1.0000000000000000e-03 1.0000000000000000e-03
-1.0000000000000000e-03 1.0000000000000000e-03
-1.0000000000000000e-03 1.0000000000000000e-03
ITEM: ATOMS id x y z 
1 -8.80749e-06 9.9844e-05 0.000115288 
2 -3.48086e-06 0.000100177 0.000115159 
3 6.1143e-07 9.99815e-05 0.000115044 
4 3.72931e-06 0.000100481 0.000115352 
5 6.59828e-06 9.9498e-05 0.000115251 
ITEM: TIMESTEP
630
ITEM: NUMBER OF ATOMS
5
ITEM: BOX BOUNDS mm mm mm
-1.0000000000000000e-03 1.0000000000000000e-03
-1.0000000000000000e-03 1.0000000000000000e-03
-1.0000000000000000e-03 1.0000000000000000e-03
ITEM: ATOMS id x y z 
1 -8.75125e-06 0.000100247 0.000116226 
2 -3.3775e-06 0.000100585 0.000116106 
3 6.00146e-07 0.000100394 0.000115898 
4 3.66042e-06 0.000100868 0.000116385 
5 6.61837e-06 9.98737e-05 0.000116047 
ITEM: TIMESTEP
640
ITEM: NUMBER OF ATOMS
5
ITEM: BOX BOUNDS mm mm mm
-1.0000000000000000e-03 1.0000000000000000e-03
-1.0000000000000000e-03 1.0000000000000000e-03
-1.0000000000000000e-03 1.0000000000000000e-03
ITEM: ATOMS id x y z 
1 -8.6941e-06 0.000100441 0.000117027 
2 -3.2775e-06 0.000100752 0.00011693 
3 5.87174e-07 0.000100565 0.000116601 
4 3.59278e-06 0.000101016 0.000117336 
5 6.63901e-06 0.000100057 0.000116669 
ITEM: TIMESTEP
650
ITEM: NUMBER OF ATOMS
5
ITEM: BOX BOUNDS mm mm mm
-1.0000000000000000e-03 1.0000000000000000e-03
-1.0000000000000000e-03 1.0000000000000000e-03
-1.0000000000000000e-03 1.0000000000000000e-03
ITEM: ATOMS id x y z 
1 -8.63609e-06 0.000100507 0.000117758 
2 -3.18091e-06 0.000100766 0.000117696 
3 5.72742e-07 0.000100573 0.000117218 
4 3.52658e-06 0.00010102 0.000118266 
5 6.65982e-06 0.000100113 0.000117182 
ITEM: TIMESTEP
660
ITEM: NUMBER OF ATOMS
5
ITEM: BOX BOUNDS mm mm mm
-1.0000000000000000e-03 1.0000000000000000e-03
-1.0000000000000000e-03 1.0000000000000000e-03
-1.0000000000000000e-03 1.0000000000000000e-03
ITEM: ATOMS id x y z 
1 -8.57727e-06 0.000100538 0.000118426 
2 -3.0878e-06 0.000100737 0.000118405 
3 5.57188e-07 0.00010053 0.000117759 
4 3.46207e-06 0.000100992 0.000119161 
5 6.68046e-06 0.00010013 0.000117606 
ITEM: TIMESTEP
670
ITEM: NUMBER OF ATOMS
5
ITEM: BOX BOUNDS mm mm mm
-1.0000000000000000e-03 1.0000000000000000e-03
-1.0000000000000000e-03 1.0000000000000000e-03
-1.0000000000000000e-03 1.0000000000000000e-03
ITEM: ATOMS id x y z 
1 -8.51764e-06 0.000100607 0.000118975 
2 -2.99825e-06 0.000100747 0.000118995 
3 5.40954e-07 0.000100526 0.000118186 
4 3.39931e-06 0.000101003 0.000119933 
5 6.7005e-06 0.000100186 0.000117921 
ITEM: TIMESTEP
680
ITEM: NUMBER OF ATOMS
5
ITEM: BOX BOUNDS mm mm mm
-1.0000000000000000e-03 1.0000000000000000e-03
-1.0000000000000000e-03 1.0000000000000000e-03
-1.0000000000000000e-03 1.0000000000000000e-03
ITEM: ATOMS id x y z 
1 -8.4572e-06 0.000100748 0.000119312 
2 -2.91228e-06 0.000100836 0.000119366 
3 5.2445e-07 0.000100621 0.000118432 
4 3.33833e-06 0.00010107 0.000120441 
5 6.71959e-06 0.000100335 0.000118081 
ITEM: TIMESTEP
690
ITEM: NUMBER OF ATOMS
5
ITEM: BOX BOUNDS mm mm mm
-1.0000000000000000e-03 1.0000000000000000e-03
-1.0000000000000000e-03 1.0000000000000000e-03
-1.0000000000000000e-03 1.0000000000000000e-03
ITEM: ATOMS id x y z 
1 -8.39604e-06 0.000100977 0.000119339 
2 -2.82997e-06 0.000101016 0.00011942 
3 5.08087e-07 0.000100849 0.000118429 
4 3.2791e-06 0.000101183 0.000120555 
5 6.73749e-06 0.000100619 0.000118033 
ITEM: TIMESTEP
700
ITEM: NUMBER OF ATOMS
5
ITEM: BOX BOUNDS mm mm mm