ITEM: TIMESTEP
0
ITEM: NUMBER OF ATOMS
5
ITEM: BOX BOUNDS mm mm mm
-1.0000000000000000e-03 1.0000000000000000e-03
-1.0000000000000000e-03 1.0000000000000000e-03
-1.0000000000000000e-03 1.0000000000000000e-03
ITEM: ATOMS id x y z 
1 2.13779e-06 9.74279e-05 0.000112369 
2 6.85998e-06 9.83827e-05 0.000117255 
3 -8.17395e-07 9.80038e-05 0.000115903 
4 -6.0071e-06 0.000100123 0.000107774 
5 -2.10824e-06 0.000100619 0.000113879 
ITEM: TIMESTEP
10
ITEM: NUMBER OF ATOMS
5
ITEM: BOX BOUNDS mm mm mm
-1.0000000000000000e-03 1.0000000000000000e-03
-1.0000000000000000e-03 1.0000000000000000e-03
-1.0000000000000000e-03 1.0000000000000000e-03
ITEM: ATOMS id x y z 
1 2.23098e-06 9.74713e-05 0.000112557 
2 6.91552e-06 9.85742e-05 0.000117183 
3 -8.69893e-07 9.80252e-05 0.000116083 
4 -5.94772e-06 0.000100739 0.000108071 
5 -2.18788e-06 0.000100958 0.000113879 
ITEM: TIMESTEP
20
ITEM: NUMBER OF ATOMS
5
ITEM: BOX BOUNDS mm mm mm
-1.0000000000000000e-03 1.0000000000000000e-03
-1.0000000000000000e-03 1.0000000000000000e-03
-1.0000000000000000e-03 1.0000000000000000e-03
ITEM: ATOMS id x y z 
1 2.32169e-06 9.77919e-05 0.000113097 
2 6.96728e-06 9.88369e-05 0.000117073 
3 -9.20926e-07 9.81491e-05 0.000116327 
4 -5.88809e-06 0.000102192 0.000108841 
5 -2.26539e-06 0.000101741 0.000113912 
ITEM: TIMESTEP
30
ITEM: NUMBER OF ATOMS
5
ITEM: BOX BOUNDS mm mm mm
-1.0000000000000000e-03 1.0000000000000000e-03
-1.0000000000000000e-03 1.0000000000000000e-03
-1.0000000000000000e-03 1.0000000000000000e-03
ITEM: ATOMS id x y z 
1 2.40983e-06 9.82835e-05 0.000113773 
2 7.01555e-06 9.91673e-05 0.000116902 
3 -9.70916e-07 9.83439e-05 0.000116559 
4 -5.82833e-06 0.000104173 0.000109757 
5 -2.34034e-06 0.000102821 0.000113901 
ITEM: TIMESTEP
40
ITEM: NUMBER OF ATOMS
5
ITEM: BOX BOUNDS mm mm mm
-1.0000000000000000e-03 1.0000000000000000e-03
-1.0000000000000000e-03 1.0000000000000000e-03
-1.0000000000000000e-03 1.0000000000000000e-03
ITEM: ATOMS id x y z 
1 2.49531e-06 9.88165e-05 0.000114367 
2 7.06052e-06 9.95316e-05 0.00011665 
3 -1.02031e-06 9.85753e-05 0.000116705 
4 -5.76855e-06 0.000106203 0.000110589 
5 -2.41232e-06 0.000103947 0.000113806 
ITEM: TIMESTEP
50
ITEM: NUMBER OF ATOMS
5
ITEM: BOX BOUNDS mm mm mm
-1.0000000000000000e-03 1.0000000000000000e-03
-1.0000000000000000e-03 1.0000000000000000e-03
-1.0000000000000000e-03 1.0000000000000000e-03
ITEM: ATOMS id x y z 
1 2.57798e-06 9.92639e-05 0.000114746 
2 7.10246e-06 9.98571e-05 0.000116302 
3 -1.06939e-06 9.88053e-05 0.00011672 
4 -5.7088e-06 0.000107732 0.000111343 
5 -2.48095e-06 0.000104783 0.000113666 
ITEM: TIMESTEP
60
ITEM: NUMBER OF ATOMS
5
ITEM: BOX BOUNDS mm mm mm
-1.0000000000000000e-03 1.0000000000000000e-03
-1.0000000000000000e-03 1.0000000000000000e-03
-1.0000000000000000e-03 1.0000000000000000e-03
ITEM: ATOMS id x y z 
1 2.6577e-06 9.9522e-05 0.000114859 
2 7.14167e-06 0.000100049 0.000115842 
3 -1.11833e-06 9.89914e-05 0.000116581 
4 -5.64903e-06 0.000108309 0.000112191 
5 -2.5461e-06 0.000105018 0.000113561 
ITEM: TIMESTEP
70
ITEM: NUMBER OF ATOMS
5
ITEM: BOX BOUNDS mm mm mm
-1.0000000000000000e-03 1.0000000000000000e-03
-1.0000000000000000e-03 1.0000000000000000e-03
-1.0000000000000000e-03 1.0000000000000000e-03
ITEM: ATOMS id x y z 
1 2.7344e-06 9.9535e-05 0.000114703 
2 7.17838e-06 0.000100027 0.000115245 
3 -1.16713e-06 9.90948e-05 0.000116281 
4 -5.58935e-06 0.000107786 0.00011328 
5 -2.60774e-06 0.000104503 0.000113527 
ITEM: TIMESTEP
80
ITEM: NUMBER OF ATOMS
5
ITEM: BOX BOUNDS mm mm mm
-1.0000000000000000e-03 1.0000000000000000e-03
-1.0000000000000000e-03 1.0000000000000000e-03
-1.0000000000000000e-03 1.0000000000000000e-03
ITEM: ATOMS id x y z 
1 2.80808e-06 9.93142e-05 0.000114285 
2 7.21278e-06 9.97758e-05 0.000114475 
3 -1.21561e-06 9.90986e-05 0.000115813 
4 -5.53002e-06 0.000106377 0.000114609 
5 -2.66597e-06 0.000103334 0.000113511 
ITEM: TIMESTEP
90
ITEM: NUMBER OF ATOMS
5
ITEM: BOX BOUNDS mm mm mm
-1.0000000000000000e-03 1.0000000000000000e-03
-1.0000000000000000e-03 1.0000000000000000e-03
-1.0000000000000000e-03 1.0000000000000000e-03
ITEM: ATOMS id x y z 
1 2.87889e-06 9.89411e-05 0.000113637 
2 7.24506e-06 9.93602e-05 0.000113521 
3 -1.2634e-06 9.90263e-05 0.000115187 
4 -5.47125e-06 0.000104521 0.00011604 
5 -2.72114e-06 0.000101794 0.000113423 
ITEM: TIMESTEP
100
ITEM: NUMBER OF ATOMS
5
ITEM: BOX BOUNDS mm mm mm
-1.0000000000000000e-03 1.0000000000000000e-03
-1.0000000000000000e-03 1.0000000000000000e-03
-1.0000000000000000e-03 1.0000000000000000e-03
ITEM: ATOMS id x y z 
1 2.94697e-06 9.85524e-05 0.000112858 
2 7.27528e-06 9.89237e-05 0.000112452 
3 -1.30946e-06 9.89513e-05 0.000114458 
4 -5.41308e-06 0.00010263 0.000117404 
5 -2.77461e-06 0.000100216 0.000113231 
ITEM: TIMESTEP
110
ITEM: NUMBER OF ATOMS
5
ITEM: BOX BOUNDS mm mm mm
-1.0000000000000000e-03 1.0000000000000000e-03
-1.0000000000000000e-03 1.0000000000000000e-03
-1.0000000000000000e-03 1.0000000000000000e-03
ITEM: ATOMS id x y z 
1 3.01237e-06 9.83152e-05 0.000112135 
2 7.30351e-06 9.86602e-05 0.000111453 
3 -1.35037e-06 9.89938e-05 0.00011374 
4 -5.35525e-06 0.000100914 0.000118571 
5 -2.83018e-06 9.88507e-05 0.000113031 
ITEM: TIMESTEP
120
ITEM: NUMBER OF ATOMS
5
ITEM: BOX BOUNDS mm mm mm
-1.0000000000000000e-03 1.0000000000000000e-03
-1.0000000000000000e-03 1.0000000000000000e-03
-1.0000000000000000e-03 1.0000000000000000e-03
ITEM: ATOMS id x y z 
1 3.07514e-06 9.83959e-05 0.000111691 
2 7.32981e-06 9.8776e-05 0.000110766 
3 -1.3814e-06 9.93058e-05 0.000113172 
4 -5.29752e-06 9.93677e-05 0.000119471 
5 -2.89282e-06 9.78147e-05 0.000113011 
ITEM: TIMESTEP
130
ITEM: NUMBER OF ATOMS
5
ITEM: BOX BOUNDS mm mm mm
-1.0000000000000000e-03 1.0000000000000000e-03
-1.0000000000000000e-03 1.0000000000000000e-03
-1.0000000000000000e-03 1.0000000000000000e-03
ITEM: ATOMS id x y z 
1 3.13517e-06 9.89184e-05 0.000111666 
2 7.35413e-06 9.94353e-05 0.000110556 
3 -1.40669e-06 0.000100027 0.000112841 
4 -5.23972e-06 9.78595e-05 0.000120098 
5 -2.95847e-06 9.71031e-05 0.000113328 
ITEM: TIMESTEP
140
ITEM: NUMBER OF ATOMS
5
ITEM: BOX BOUNDS mm mm mm
-1.0000000000000000e-03 1.0000000000000000e-03
-1.0000000000000000e-03 1.0000000000000000e-03
-1.0000000000000000e-03 1.0000000000000000e-03
ITEM: ATOMS id x y z 
1 3.19238e-06 9.99213e-05 0.00011202 
2 7.37645e-06 0.000100702 0.000110784 
3 -1.43044e-06 0.000101231 0.000112718 
4 -5.1817e-06 9.62475e-05 0.000120506 
5 -3.02295e-06 9.66323e-05 0.000114004 
ITEM: TIMESTEP
150
ITEM: NUMBER OF ATOMS
5
ITEM: BOX BOUNDS mm mm mm
-1.0000000000000000e-03 1.0000000000000000e-03
-1.0000000000000000e-03 1.0000000000000000e-03
-1.0000000000000000e-03 1.0000000000000000e-03
ITEM: ATOMS id x y z 
1 3.24672e-06 0.000101328 0.00011256 
2 7.39662e-06 0.000102489 0.000111233 
3 -1.45384e-06 0.000102873 0.000112671 
4 -5.12342e-06 9.44749e-05 0.000120771 
5 -3.08501e-06 9.62919e-05 0.000114906 
ITEM: TIMESTEP
160
ITEM: NUMBER OF ATOMS
5
ITEM: BOX BOUNDS mm mm mm
-1.0000000000000000e-03 1.0000000000000000e-03
-1.0000000000000000e-03 1.0000000000000000e-03
-1.0000000000000000e-03 1.0000000000000000e-03
ITEM: ATOMS id x y z 
1 3.29804e-06 0.000102933 0.000113081 
2 7.41449e-06 0.000104532 0.000111673 
3 -1.47724e-06 0.000104743 0.000112575 
4 -5.06489e-06 9.26367e-05 0.000120942 
5 -3.14413e-06 9.60095e-05 0.000115829 
ITEM: TIMESTEP
170
ITEM: NUMBER OF ATOMS
5
ITEM: BOX BOUNDS mm mm mm
-1.0000000000000000e-03 1.0000000000000000e-03
-1.0000000000000000e-03 1.0000000000000000e-03
-1.0000000000000000e-03 1.0000000000000000e-03
ITEM: ATOMS id x y z 
1 3.34621e-06 0.000104424 0.000113503 
2 7.42997e-06 0.000106411 0.000112022 
3 -1.5006e-06 0.000106462 0.000112413 
4 -5.00613e-06 9.09954e-05 0.000120995 
5 -3.20009e-06 9.57904e-05 0.000116589 
ITEM: TIMESTEP
180
ITEM: NUMBER OF ATOMS
5
ITEM: BOX BOUNDS mm mm mm
-1.0000000000000000e-03 1.0000000000000000e-03
-1.0000000000000000e-03 1.0000000000000000e-03
-1.0000000000000000e-03 1.0000000000000000e-03
ITEM: ATOMS id x y z 
1 3.39117e-06 0.00010545 0.000113895 
2 7.44285e-06 0.00010765 0.000112386 
3 -1.52377e-06 0.000107563 0.000112298 
4 -4.94704e-06 8.99078e-05 0.000120841 
5 -3.25288e-06 9.57026e-05 0.000117064 
ITEM: TIMESTEP
190
ITEM: NUMBER OF ATOMS
5
ITEM: BOX BOUNDS mm mm mm
-1.0000000000000000e-03 1.0000000000000000e-03
-1.0000000000000000e-03 1.0000000000000000e-03
-1.0000000000000000e-03 1.0000000000000000e-03
ITEM: ATOMS id x y z 
1 3.43287e-06 0.000105762 0.00011439 
2 7.45304e-06 0.000107912 0.000112938 
3 -1.5467e-06 0.000107687 0.000112371 
4 -4.88761e-06 8.96586e-05 0.000120374 
5 -3.30255e-06 9.58146e-05 0.000117204 
ITEM: TIMESTEP
200
ITEM: NUMBER OF ATOMS
5
ITEM: BOX BOUNDS mm mm mm
-1.0000000000000000e-03 1.0000000000000000e-03
-1.0000000000000000e-03 1.0000000000000000e-03
-1.0000000000000000e-03 1.0000000000000000e-03
ITEM: ATOMS id x y z 
1 3.47133e-06 0.000105335 0.000115062 
2 7.46061e-06 0.000107168 0.000113755 
3 -1.56931e-06 0.000106772 0.000112666 
4 -4.82791e-06 9.02919e-05 0.000119537 
5 -3.34914e-06 9.61341e-05 0.000117016 
ITEM: TIMESTEP
210
ITEM: NUMBER OF ATOMS
5
ITEM: BOX BOUNDS mm mm mm
-1.0000000000000000e-03 1.0000000000000000e-03
-1.0000000000000000e-03 1.0000000000000000e-03
-1.0000000000000000e-03 1.0000000000000000e-03
ITEM: ATOMS id x y z 
1 3.50647e-06 0.000104381 0.00011587 
2 7.46589e-06 0.00010571 0.000114763 
3 -1.59163e-06 0.000105089 0.000113077 
4 -4.76795e-06 9.15776e-05 0.000118354 
5 -3.39278e-06 9.65989e-05 0.000116551 
ITEM: TIMESTEP
220
ITEM: NUMBER OF ATOMS
5
ITEM: BOX BOUNDS mm mm mm
-1.0000000000000000e-03 1.0000000000000000e-03
-1.0000000000000000e-03 1.0000000000000000e-03
-1.0000000000000000e-03 1.0000000000000000e-03
ITEM: ATOMS id x y z 
1 3.53821e-06 0.000103223 0.000116695 
2 7.46924e-06 0.000103974 0.000115799 
3 -1.6135e-06 0.000103089 0.000113457 
4 -4.70798e-06 9.31521e-05 0.000116941 
5 -3.43356e-06 9.71271e-05 0.000115896 
ITEM: TIMESTEP
230
ITEM: NUMBER OF ATOMS
5
ITEM: BOX BOUNDS mm mm mm
-1.0000000000000000e-03 1.0000000000000000e-03
-1.0000000000000000e-03 1.0000000000000000e-03
-1.0000000000000000e-03 1.0000000000000000e-03
ITEM: ATOMS id x y z 
1 3.56639e-06 0.000102132 0.000117406 
2 7.47104e-06 0.00010232 0.000116717 
3 -1.63464e-06 0.000101181 0.000113746 
4 -4.64843e-06 9.47293e-05 0.000115485 
5 -3.47155e-06 9.76861e-05 0.000115173 
ITEM: TIMESTEP
240
ITEM: NUMBER OF ATOMS
5
ITEM: BOX BOUNDS mm mm mm
-1.0000000000000000e-03 1.0000000000000000e-03
-1.0000000000000000e-03 1.0000000000000000e-03
-1.0000000000000000e-03 1.0000000000000000e-03
ITEM: ATOMS id x y z 
1 3.591e-06 0.000101249 0.000117907 
2 7.47164e-06 0.000100918 0.000117436 
3 -1.65384e-06 9.96031e-05 0.000114007 
4 -4.59028e-06 9.62297e-05 0.000114199 
5 -3.50703e-06 9.83278e-05 0.000114517 
ITEM: TIMESTEP
250
ITEM: NUMBER OF ATOMS
5
ITEM: BOX BOUNDS mm mm mm
-1.0000000000000000e-03 1.0000000000000000e-03
-1.0000000000000000e-03 1.0000000000000000e-03
-1.0000000000000000e-03 1.0000000000000000e-03
ITEM: ATOMS id x y z 
1 3.61214e-06 0.000100594 0.000118152 
2 7.47115e-06 9.97649e-05 0.000117939 
3 -1.66605e-06 9.84058e-05 0.000114368 
4 -4.53594e-06 9.77679e-05 0.000113244 
5 -3.54282e-06 9.91713e-05 0.000114031 
ITEM: TIMESTEP
260
ITEM: NUMBER OF ATOMS
5
ITEM: BOX BOUNDS mm mm mm
-1.0000000000000000e-03 1.0000000000000000e-03
-1.0000000000000000e-03 1.0000000000000000e-03
-1.0000000000000000e-03 1.0000000000000000e-03
ITEM: ATOMS id x y z 
1 3.63e-06 0.000100129 0.000118149 
2 7.46957e-06 9.87685e-05 0.000118258 
3 -1.66891e-06 9.75061e-05 0.000114918 
4 -4.48881e-06 9.95423e-05 0.00011265 
5 -3.57795e-06 0.00010035 0.000113733 
ITEM: TIMESTEP
270
ITEM: NUMBER OF ATOMS
5
ITEM: BOX BOUNDS mm mm mm
-1.0000000000000000e-03 1.0000000000000000e-03
-1.0000000000000000e-03 1.0000000000000000e-03
-1.0000000000000000e-03 1.0000000000000000e-03
ITEM: ATOMS id x y z 
1 3.64482e-06 9.98063e-05 0.000117946 
2 7.46676e-06 9.78328e-05 0.000118441 
3 -1.66865e-06 9.67741e-05 0.000115641 
4 -4.44944e-06 0.000101696 0.000112293 
5 -3.60567e-06 0.000101927 0.000113543 
ITEM: TIMESTEP
280
ITEM: NUMBER OF ATOMS
5
ITEM: BOX BOUNDS mm mm mm
-1.0000000000000000e-03 1.0000000000000000e-03
-1.0000000000000000e-03 1.0000000000000000e-03
-1.0000000000000000e-03 1.0000000000000000e-03
ITEM: ATOMS id x y z 
1 3.65701e-06 9.95854e-05 0.000117608 
2 7.46243e-06 9.69125e-05 0.000118532 
3 -1.6678e-06 9.61091e-05 0.00011643 
4 -4.41727e-06 0.000104198 0.000111978 
5 -3.62408e-06 0.00010383 0.00011334 
ITEM: TIMESTEP
290
ITEM: NUMBER OF ATOMS
5
ITEM: BOX BOUNDS mm mm mm
-1.0000000000000000e-03 1.0000000000000000e-03
-1.0000000000000000e-03 1.0000000000000000e-03
-1.0000000000000000e-03 1.0000000000000000e-03
ITEM: ATOMS id x y z 
1 3.66692e-06 9.94233e-05 0.00011718 
2 7.45626e-06 9.60405e-05 0.000118532 
3 -1.66688e-06 9.54955e-05 0.000117144 
4 -4.39019e-06 0.00010677 0.00011159 
5 -3.63457e-06 0.000105801 0.000113067 
ITEM: TIMESTEP
300
ITEM: NUMBER OF ATOMS
5
ITEM: BOX BOUNDS mm mm mm
-1.0000000000000000e-03 1.0000000000000000e-03
-1.0000000000000000e-03 1.0000000000000000e-03
-1.0000000000000000e-03 1.0000000000000000e-03
ITEM: ATOMS id x y z 
1 3.67475e-06 9.92668e-05 0.000116671 
2 7.448e-06 9.53213e-05 0.000118398 
3 -1.66608e-06 9.50142e-05 0.000117654 
4 -4.36545e-06 0.000108904 0.000111196 
5 -3.6396e-06 0.000107421 0.000112801 
ITEM: TIMESTEP
310
ITEM: NUMBER OF ATOMS
5
ITEM: BOX BOUNDS mm mm mm
-1.0000000000000000e-03 1.0000000000000000e-03
-1.0000000000000000e-03 1.0000000000000000e-03
-1.0000000000000000e-03 1.0000000000000000e-03
ITEM: ATOMS id x y z 
1 3.68059e-06 9.90545e-05 0.000116043 
2 7.43752e-06 9.48792e-05 0.000118048 
3 -1.66538e-06 9.47891e-05 0.000117873 
4 -4.34133e-06 0.000110043 0.000110997 
5 -3.64077e-06 0.000108245 0.000112706 
ITEM: TIMESTEP
320
ITEM: NUMBER OF ATOMS
5
ITEM: BOX BOUNDS mm mm mm
-1.0000000000000000e-03 1.0000000000000000e-03
-1.0000000000000000e-03 1.0000000000000000e-03
-1.0000000000000000e-03 1.0000000000000000e-03
ITEM: ATOMS id x y z 
1 3.68457e-06 9.87334e-05 0.000115229 
2 7.42482e-06 9.47794e-05 0.0001174 
3 -1.66476e-06 9.48973e-05 0.000117759 
4 -4.31711e-06 0.000109856 0.000111154 
5 -3.63886e-06 0.000108021 0.00011291 
ITEM: TIMESTEP
330
ITEM: NUMBER OF ATOMS
5
ITEM: BOX BOUNDS mm mm mm
-1.0000000000000000e-03 1.0000000000000000e-03
-1.0000000000000000e-03 1.0000000000000000e-03
-1.0000000000000000e-03 1.0000000000000000e-03
ITEM: ATOMS id x y z 
1 3.68674e-06 9.82808e-05 0.000114156 
2 7.41e-06 9.4978e-05 0.000116416 
3 -1.6642e-06 9.53085e-05 0.000117325 
4 -4.29272e-06 0.000108436 0.000111638 
5 -3.63408e-06 0.000106832 0.000113388 
ITEM: TIMESTEP
340
ITEM: NUMBER OF ATOMS
5
ITEM: BOX BOUNDS mm mm mm
-1.0000000000000000e-03 1.0000000000000000e-03
-1.0000000000000000e-03 1.0000000000000000e-03
-1.0000000000000000e-03 1.0000000000000000e-03
ITEM: ATOMS id x y z 
1 3.68701e-06 9.77233e-05 0.000112806 
2 7.39332e-06 9.5349e-05 0.000115129 
3 -1.66372e-06 9.59047e-05 0.000116636 
4 -4.26847e-06 0.000106251 0.00011226 
5 -3.62637e-06 0.000105057 0.000113988 
ITEM: TIMESTEP
350
ITEM: NUMBER OF ATOMS
5
ITEM: BOX BOUNDS mm mm mm
-1.0000000000000000e-03 1.0000000000000000e-03
-1.0000000000000000e-03 1.0000000000000000e-03
-1.0000000000000000e-03 1.0000000000000000e-03
ITEM: ATOMS id x y z 
1 3.68538e-06 9.71499e-05 0.000111287 
2 7.37512e-06 9.57784e-05 0.000113679 
3 -1.66327e-06 9.65643e-05 0.000115805 
4 -4.24503e-06 0.00010389 0.00011283 
5 -3.61546e-06 0.000103151 0.000114547 
ITEM: TIMESTEP
360
ITEM: NUMBER OF ATOMS
5
ITEM: BOX BOUNDS mm mm mm
-1.0000000000000000e-03 1.0000000000000000e-03
-1.0000000000000000e-03 1.0000000000000000e-03
-1.0000000000000000e-03 1.0000000000000000e-03
ITEM: ATOMS id x y z 
1 3.68176e-06 9.67123e-05 0.00010988 
2 7.35573e-06 9.62533e-05 0.000112308 
3 -1.66247e-06 9.72443e-05 0.000114977 
4 -4.22327e-06 0.000101801 0.000113294 
5 -3.60091e-06 0.000101457 0.000114997 
ITEM: TIMESTEP
370
ITEM: NUMBER OF ATOMS
5
ITEM: BOX BOUNDS mm mm mm
-1.0000000000000000e-03 1.0000000000000000e-03
-1.0000000000000000e-03 1.0000000000000000e-03
-1.0000000000000000e-03 1.0000000000000000e-03
ITEM: ATOMS id x y z 
1 3.67601e-06 9.65959e-05 0.000108969 
2 7.33545e-06 9.68805e-05 0.000111303 
3 -1.66031e-06 9.80033e-05 0.000114298 
4 -4.20424e-06 0.000100193 0.000113729 
5 -3.58287e-06 0.000100126 0.000115367 
ITEM: TIMESTEP
380
ITEM: NUMBER OF ATOMS
5
ITEM: BOX BOUNDS mm mm mm
-1.0000000000000000e-03 1.0000000000000000e-03
-1.0000000000000000e-03 1.0000000000000000e-03
-1.0000000000000000e-03 1.0000000000000000e-03
ITEM: ATOMS id x y z 
1 3.66809e-06 9.69544e-05 0.000108845 
2 7.3144e-06 9.78236e-05 0.000110865 
3 -1.65359e-06 9.8962e-05 0.000113853 
4 -4.19025e-06 9.90662e-05 0.00011425 
5 -3.56234e-06 9.91482e-05 0.00011573 
ITEM: TIMESTEP
390
ITEM: NUMBER OF ATOMS
5
ITEM: BOX BOUNDS mm mm mm
-1.0000000000000000e-03 1.0000000000000000e-03
-1.0000000000000000e-03 1.0000000000000000e-03
-1.0000000000000000e-03 1.0000000000000000e-03
ITEM: ATOMS id x y z 
1 3.65802e-06 9.7838e-05 0.000109513 
2 7.29273e-06 9.92025e-05 0.000110976 
3 -1.63992e-06 0.000100234 0.000113617 
4 -4.18429e-06 9.82995e-05 0.000114902 
5 -3.53891e-06 9.84282e-05 0.000116133 
ITEM: TIMESTEP
400
ITEM: NUMBER OF ATOMS
5
ITEM: BOX BOUNDS mm mm mm
-1.0000000000000000e-03 1.0000000000000000e-03
-1.0000000000000000e-03 1.0000000000000000e-03
-1.0000000000000000e-03 1.0000000000000000e-03
ITEM: ATOMS id x y z 
1 3.64586e-06 9.91588e-05 0.000110681 
2 7.27048e-06 0.000101009 0.000111414 
3 -1.62311e-06 0.000101846 0.000113471 
4 -4.1872e-06 9.77391e-05 0.000115633 
5 -3.50822e-06 9.78559e-05 0.000116567 
ITEM: TIMESTEP
410
ITEM: NUMBER OF ATOMS
5
ITEM: BOX BOUNDS mm mm mm
-1.0000000000000000e-03 1.0000000000000000e-03
-1.0000000000000000e-03 1.0000000000000000e-03
-1.0000000000000000e-03 1.0000000000000000e-03
ITEM: ATOMS id x y z 
1 3.63182e-06 0.000100706 0.000111962 
2 7.24761e-06 0.000103065 0.0001119 
3 -1.60591e-06 0.000103673 0.000113291 
4 -4.2036e-06 9.72715e-05 0.00011633 
5 -3.46308e-06 9.73584e-05 0.000116979 
ITEM: TIMESTEP
420
ITEM: NUMBER OF ATOMS
5
ITEM: BOX BOUNDS mm mm mm
-1.0000000000000000e-03 1.0000000000000000e-03
-1.0000000000000000e-03 1.0000000000000000e-03
-1.0000000000000000e-03 1.0000000000000000e-03
ITEM: ATOMS id x y z 
1 3.61626e-06 0.000102195 0.000113106 
2 7.22386e-06 0.000105027 0.000112287 
3 -1.58916e-06 0.000105417 0.000113038 
4 -4.24276e-06 9.68599e-05 0.000116878 
5 -3.39346e-06 9.69251e-05 0.000117297 
ITEM: TIMESTEP
430
ITEM: NUMBER OF ATOMS
5
ITEM: BOX BOUNDS mm mm mm
-1.0000000000000000e-03 1.0000000000000000e-03
-1.0000000000000000e-03 1.0000000000000000e-03
-1.0000000000000000e-03 1.0000000000000000e-03
ITEM: ATOMS id x y z 
1 3.59937e-06 0.000103335 0.000114078 
2 7.19889e-06 0.000106468 0.000112622 
3 -1.57308e-06 0.000106666 0.000112798 
4 -4.31042e-06 9.65386e-05 0.000117198 
5 -3.2933e-06 9.65988e-05 0.000117443 
ITEM: TIMESTEP
440
ITEM: NUMBER OF ATOMS
5
ITEM: BOX BOUNDS mm mm mm
-1.0000000000000000e-03 1.0000000000000000e-03
-1.0000000000000000e-03 1.0000000000000000e-03
-1.0000000000000000e-03 1.0000000000000000e-03
ITEM: ATOMS id x y z 
1 3.58127e-06 0.000103927 0.000114986 
2 7.17244e-06 0.000107045 0.000113056 
3 -1.55765e-06 0.000107058 0.0001127 
4 -4.40271e-06 9.63662e-05 0.000117242 
5 -3.16646e-06 9.64339e-05 0.000117355 
ITEM: TIMESTEP
450
ITEM: NUMBER OF ATOMS
5
ITEM: BOX BOUNDS mm mm mm
-1.0000000000000000e-03 1.0000000000000000e-03
-1.0000000000000000e-03 1.0000000000000000e-03
-1.0000000000000000e-03 1.0000000000000000e-03
ITEM: ATOMS id x y z 
1 3.56196e-06 0.000103944 0.000115948 
2 7.14447e-06 0.000106673 0.000113689 
3 -1.54279e-06 0.000106472 0.000112793 
4 -4.51138e-06 9.63671e-05 0.000116996 
5 -3.02113e-06 9.64461e-05 0.000116998 
ITEM: TIMESTEP
460
ITEM: NUMBER OF ATOMS
5
ITEM: BOX BOUNDS mm mm mm
-1.0000000000000000e-03 1.0000000000000000e-03
-1.0000000000000000e-03 1.0000000000000000e-03
-1.0000000000000000e-03 1.0000000000000000e-03
ITEM: ATOMS id x y z 
1 3.5415e-06 0.000103542 0.000116999 
2 7.11507e-06 0.000105569 0.000114487 
3 -1.52846e-06 0.000105105 0.000113 
4 -4.62969e-06 9.65077e-05 0.000116478 
5 -2.8643e-06 9.6594e-05 0.000116378 
ITEM: TIMESTEP
470
ITEM: NUMBER OF ATOMS
5
ITEM: BOX BOUNDS mm mm mm
-1.0000000000000000e-03 1.0000000000000000e-03
-1.0000000000000000e-03 1.0000000000000000e-03
-1.0000000000000000e-03 1.0000000000000000e-03
ITEM: ATOMS id x y z 
1 3.51986e-06 0.000102965 0.000118078 
2 7.08452e-06 0.00010413 0.000115319 
3 -1.51455e-06 0.000103361 0.000113187 
4 -4.75304e-06 9.67238e-05 0.000115756 
5 -2.70082e-06 9.68114e-05 0.000115554 
ITEM: TIMESTEP
480
ITEM: NUMBER OF ATOMS
5
ITEM: BOX BOUNDS mm mm mm
-1.0000000000000000e-03 1.0000000000000000e-03
-1.0000000000000000e-03 1.0000000000000000e-03
-1.0000000000000000e-03 1.0000000000000000e-03
ITEM: ATOMS id x y z 
1 3.49686e-06 0.000102421 0.00011905 
2 7.05299e-06 0.000102729 0.000116052 
3 -1.5008e-06 0.000101659 0.000113287 
4 -4.87857e-06 9.69771e-05 0.000114952 
5 -2.53384e-06 9.70656e-05 0.00011465 
ITEM: TIMESTEP
490
ITEM: NUMBER OF ATOMS
5
ITEM: BOX BOUNDS mm mm mm
-1.0000000000000000e-03 1.0000000000000000e-03
-1.0000000000000000e-03 1.0000000000000000e-03
-1.0000000000000000e-03 1.0000000000000000e-03
ITEM: ATOMS id x y z 
1 3.47243e-06 0.000102009 0.000119758 
2 7.02062e-06 0.000101586 0.000116608 
3 -1.48657e-06 0.000100284 0.000113358 
4 -5.00459e-06 9.72933e-05 0.000114231 
5 -2.36571e-06 9.73949e-05 0.00011384 
ITEM: TIMESTEP
500
ITEM: NUMBER OF ATOMS
5
ITEM: BOX BOUNDS mm mm mm
-1.0000000000000000e-03 1.0000000000000000e-03
-1.0000000000000000e-03 1.0000000000000000e-03
-1.0000000000000000e-03 1.0000000000000000e-03
ITEM: ATOMS id x y z 
1 3.44654e-06 0.000101743 0.000120064 
2 6.9875e-06 0.000100765 0.000116967 
3 -1.4703e-06 9.93584e-05 0.000113527 
4 -5.1303e-06 9.77541e-05 0.000113751 
5 -2.19867e-06 9.78953e-05 0.000113293 
ITEM: TIMESTEP
510
ITEM: NUMBER OF ATOMS
5
ITEM: BOX BOUNDS mm mm mm
-1.0000000000000000e-03 1.0000000000000000e-03
-1.0000000000000000e-03 1.0000000000000000e-03
-1.0000000000000000e-03 1.0000000000000000e-03
ITEM: ATOMS id x y z 
1 3.41928e-06 0.000101605 0.000119916 
2 6.95369e-06 0.000100231 0.000117147 
3 -1.44592e-06 9.88732e-05 0.00011389 
4 -5.25551e-06 9.84509e-05 0.000113579 
5 -2.03912e-06 9.86655e-05 0.000113079 
ITEM: TIMESTEP
520
ITEM: NUMBER OF ATOMS
5
ITEM: BOX BOUNDS mm mm mm
-1.0000000000000000e-03 1.0000000000000000e-03
-1.0000000000000000e-03 1.0000000000000000e-03
-1.0000000000000000e-03 1.0000000000000000e-03
ITEM: ATOMS id x y z 
1 3.39068e-06 0.000101585 0.000119364 
2 6.91937e-06 9.99162e-05 0.000117178 
3 -1.40639e-06 9.87276e-05 0.000114446 
4 -5.37982e-06 9.94289e-05 0.000113651 
5 -1.89459e-06 9.97612e-05 0.000113117 
ITEM: TIMESTEP
530
ITEM: NUMBER OF ATOMS
5
ITEM: BOX BOUNDS mm mm mm
-1.0000000000000000e-03 1.0000000000000000e-03
-1.0000000000000000e-03 1.0000000000000000e-03
-1.0000000000000000e-03 1.0000000000000000e-03
ITEM: ATOMS id x y z 
1 3.36082e-06 0.000101679 0.000118542 
2 6.88475e-06 9.97455e-05 0.000117095 
3 -1.36214e-06 9.87814e-05 0.000115075 
4 -5.5025e-06 0.000100645 0.000113815 
5 -1.7557e-06 0.000101141 0.000113248 
ITEM: TIMESTEP
540
ITEM: NUMBER OF ATOMS
5
ITEM: BOX BOUNDS mm mm mm
-1.0000000000000000e-03 1.0000000000000000e-03
-1.0000000000000000e-03 1.0000000000000000e-03
-1.0000000000000000e-03 1.0000000000000000e-03
ITEM: ATOMS id x y z 
1 3.32989e-06 0.000101842 0.000117599 
2 6.85005e-06 9.9647e-05 0.000116918 
3 -1.31767e-06 9.89131e-05 0.000115643 
4 -5.62264e-06 0.000101948 0.000113925 
5 -1.6193e-06 0.00010262 0.000113328 
ITEM: TIMESTEP
550
ITEM: NUMBER OF ATOMS
5
ITEM: BOX BOUNDS mm mm mm
-1.0000000000000000e-03 1.0000000000000000e-03
-1.0000000000000000e-03 1.0000000000000000e-03
-1.0000000000000000e-03 1.0000000000000000e-03
ITEM: ATOMS id x y z 
1 3.29832e-06 0.000101962 0.00011665 
2 6.81542e-06 9.95477e-05 0.000116652 
3 -1.27414e-06 9.90281e-05 0.000116062 
4 -5.73947e-06 0.000103087 0.000113931 
5 -1.48532e-06 0.000103903 0.000113305 
ITEM: TIMESTEP
560
ITEM: NUMBER OF ATOMS
5
ITEM: BOX BOUNDS mm mm mm
-1.0000000000000000e-03 1.0000000000000000e-03
-1.0000000000000000e-03 1.0000000000000000e-03
-1.0000000000000000e-03 1.0000000000000000e-03
ITEM: ATOMS id x y z 
1 3.26645e-06 0.000101879 0.000115735 
2 6.78083e-06 9.93791e-05 0.000116277 
3 -1.23208e-06 9.90671e-05 0.000116298 
4 -5.8525e-06 0.000103782 0.000113869 
5 -1.35394e-06 0.000104658 0.00011323 
ITEM: TIMESTEP
570
ITEM: NUMBER OF ATOMS
5
ITEM: BOX BOUNDS mm mm mm
-1.0000000000000000e-03 1.0000000000000000e-03
-1.0000000000000000e-03 1.0000000000000000e-03
-1.0000000000000000e-03 1.0000000000000000e-03
ITEM: ATOMS id x y z 
1 3.23458e-06 0.000101462 0.00011482 
2 6.74623e-06 9.9093e-05 0.000115751 
3 -1.19171e-06 9.90066e-05 0.000116345 
4 -5.96149e-06 0.000103844 0.000113794 
5 -1.22538e-06 0.000104667 0.000113167 
ITEM: TIMESTEP
580
ITEM: NUMBER OF ATOMS
5
ITEM: BOX BOUNDS mm mm mm
-1.0000000000000000e-03 1.0000000000000000e-03
-1.0000000000000000e-03 1.0000000000000000e-03
-1.0000000000000000e-03 1.0000000000000000e-03
ITEM: ATOMS id x y z 
1 3.20273e-06 0.000100679 0.00011381 
2 6.71167e-06 9.86771e-05 0.000115019 
3 -1.15307e-06 9.88554e-05 0.000116209 
4 -6.06632e-06 0.000103274 0.000113708 
5 -1.09978e-06 0.000103937 0.000113113 
ITEM: TIMESTEP
590
ITEM: NUMBER OF ATOMS
5
ITEM: BOX BOUNDS mm mm mm
-1.0000000000000000e-03 1.0000000000000000e-03
-1.0000000000000000e-03 1.0000000000000000e-03
-1.0000000000000000e-03 1.0000000000000000e-03
ITEM: ATOMS id x y z 
1 3.17084e-06 9.96255e-05 0.000112617 
2 6.67735e-06 9.81634e-05 0.000114058 
3 -1.11603e-06 9.86486e-05 0.000115903 
4 -6.16704e-06 0.000102271 0.000113556 
5 -9.77325e-07 0.000102707 0.000113002 
ITEM: TIMESTEP
600
ITEM: NUMBER OF ATOMS
5
ITEM: BOX BOUNDS mm mm mm
-1.0000000000000000e-03 1.0000000000000000e-03
-1.0000000000000000e-03 1.0000000000000000e-03
-1.0000000000000000e-03 1.0000000000000000e-03
ITEM: ATOMS id x y z 
1 3.13875e-06 9.84907e-05 0.000111264 
2 6.64352e-06 9.76293e-05 0.000112931 
3 -1.08034e-06 9.84405e-05 0.000115469 
4 -6.26381e-06 0.000101134 0.000113303 
5 -8.58173e-07 0.000101323 0.000112787 
ITEM: TIMESTEP
610
ITEM: NUMBER OF ATOMS
5
ITEM: BOX BOUNDS mm mm mm
-1.0000000000000000e-03 1.0000000000000000e-03
-1.0000000000000000e-03 1.0000000000000000e-03
-1.0000000000000000e-03 1.0000000000000000e-03
ITEM: ATOMS id x y z 
1 3.10616e-06 9.75018e-05 0.000109963 
2 6.61029e-06 9.71933e-05 0.000111832 
3 -1.04576e-06 9.8301e-05 0.000114994 
4 -6.35674e-06 0.000100149 0.000113003 
5 -7.4232e-07 0.000100108 0.000112528 
ITEM: TIMESTEP
620
ITEM: NUMBER OF ATOMS
5
ITEM: BOX BOUNDS mm mm mm
-1.0000000000000000e-03 1.0000000000000000e-03
-1.0000000000000000e-03 1.0000000000000000e-03
-1.0000000000000000e-03 1.0000000000000000e-03
ITEM: ATOMS id x y z 
1 3.0728e-06 9.6869e-05 0.000109074 
2 6.57772e-06 9.69957e-05 0.000111048 
3 -1.01212e-06 9.83092e-05 0.000114601 
4 -6.446e-06 9.95186e-05 0.000112794 
5 -6.29511e-07 9.92763e-05 0.000112384 
ITEM: TIMESTEP
630
ITEM: NUMBER OF ATOMS
5
ITEM: BOX BOUNDS mm mm mm
-1.0000000000000000e-03 1.0000000000000000e-03
-1.0000000000000000e-03 1.0000000000000000e-03
-1.0000000000000000e-03 1.0000000000000000e-03
ITEM: ATOMS id x y z 
1 3.03859e-06 9.67312e-05 0.000108922 
2 6.54577e-06 9.71559e-05 0.000110822 
3 -9.79826e-07 9.85383e-05 0.000114391 
4 -6.53157e-06 9.93446e-05 0.000112811 
5 -5.1923e-07 9.8918e-05 0.000112507 
ITEM: TIMESTEP
640
ITEM: NUMBER OF ATOMS
5
ITEM: BOX BOUNDS mm mm mm
-1.0000000000000000e-03 1.0000000000000000e-03
-1.0000000000000000e-03 1.0000000000000000e-03
-1.0000000000000000e-03 1.0000000000000000e-03
ITEM: ATOMS id x y z 
1 3.00355e-06 9.71098e-05 0.000109577 
2 6.51449e-06 9.7721e-05 0.000111198 
3 -9.5002e-07 9.90312e-05 0.000114383 
4 -6.61347e-06 9.96328e-05 0.000113085 
5 -4.10279e-07 9.90159e-05 0.000112935 
ITEM: TIMESTEP
650
ITEM: NUMBER OF ATOMS
5
ITEM: BOX BOUNDS mm mm mm
-1.0000000000000000e-03 1.0000000000000000e-03
-1.0000000000000000e-03 1.0000000000000000e-03
-1.0000000000000000e-03 1.0000000000000000e-03
ITEM: ATOMS id x y z 
1 2.96779e-06 9.79012e-05 0.0001108 
2 6.48409e-06 9.86378e-05 0.000111989 
3 -9.25827e-07 9.97767e-05 0.000114505 
4 -6.69177e-06 0.000100303 0.000113517 
5 -2.99878e-07 9.94687e-05 0.000113554 
ITEM: TIMESTEP
660
ITEM: NUMBER OF ATOMS
5
ITEM: BOX BOUNDS mm mm mm
-1.0000000000000000e-03 1.0000000000000000e-03
-1.0000000000000000e-03 1.0000000000000000e-03
-1.0000000000000000e-03 1.0000000000000000e-03
ITEM: ATOMS id x y z 
1 2.93167e-06 9.89146e-05 0.000112205 
2 6.45485e-06 9.97601e-05 0.000112898 
3 -9.14907e-07 0.000100695 0.000114641 
4 -6.76644e-06 0.000101199 0.000113956 
5 -1.80971e-07 0.000100115 0.000114185 
ITEM: TIMESTEP
670
ITEM: NUMBER OF ATOMS
5
ITEM: BOX BOUNDS mm mm mm
-1.0000000000000000e-03 1.0000000000000000e-03
-1.0000000000000000e-03 1.0000000000000000e-03
-1.0000000000000000e-03 1.0000000000000000e-03
ITEM: ATOMS id x y z 
1 2.8961e-06 9.99298e-05 0.000113484 
2 6.42698e-06 0.00010088 0.000113698 
3 -9.2426e-07 0.00010163 0.0001147 
4 -6.83753e-06 0.000102097 0.000114296 
5 -4.7626e-08 0.000100761 0.0001147 
ITEM: TIMESTEP
680
ITEM: NUMBER OF ATOMS
5
ITEM: BOX BOUNDS mm mm mm
-1.0000000000000000e-03 1.0000000000000000e-03
-1.0000000000000000e-03 1.0000000000000000e-03
-1.0000000000000000e-03 1.0000000000000000e-03
ITEM: ATOMS id x y z 
1 2.8624e-06 0.000100749 0.000114516 
2 6.40057e-06 0.000101771 0.000114311 
3 -9.49247e-07 0.000102365 0.000114658 
4 -6.90506e-06 0.000102751 0.00011453 
5 9.413e-08 0.000101222 0.000115067 
ITEM: TIMESTEP
690
ITEM: NUMBER OF ATOMS
5
ITEM: BOX BOUNDS mm mm mm
-1.0000000000000000e-03 1.0000000000000000e-03
-1.0000000000000000e-03 1.0000000000000000e-03
-1.0000000000000000e-03 1.0000000000000000e-03
ITEM: ATOMS id x y z 
1 2.83188e-06 0.000101242 0.000115336 
2 6.37557e-06 0.000102256 0.000114776 
3 -9.82936e-07 0.000102692 0.000114546 
4 -6.96907e-06 0.000102958 0.000114706 
5 2.36131e-07 0.000101365 0.000115309 
ITEM: TIMESTEP
700