ITEM: TIMESTEP
0
ITEM: NUMBER OF ATOMS
5
ITEM: BOX BOUNDS mm mm mm
-1.0000000000000000e-03 1.0000000000000000e-03
-1.0000000000000000e-03 1.0000000000000000e-03
-1.0000000000000000e-03 1.0000000000000000e-03
ITEM: ATOMS id vx vy vz 
1 30.6059 -38.4694 -11.0128 
2 18.6347 51.709 -19.2792 
3 -17.2837 -12.472 41.9439 
4 19.2011 46.1863 -6.72608 
5 -26.1331 30.9007 -11.9416 
ITEM: TIMESTEP
10
ITEM: NUMBER OF ATOMS
5
ITEM: BOX BOUNDS mm mm mm
-1.0000000000000000e-03 1.0000000000000000e-03
-1.0000000000000000e-03 1.0000000000000000e-03
-1.0000000000000000e-03 1.0000000000000000e-03
ITEM: ATOMS id vx vy vz 
1 29.8144 63.5643 127.485 
2 17.3791 73.2282 -28.4931 
3 -16.767 25.1057 72.2271 
4 19.2939 346.826 189.111 
5 -25.4873 186.725 9.47322 
ITEM: TIMESTEP
20
ITEM: NUMBER OF ATOMS
5
ITEM: BOX BOUNDS mm mm mm
-1.0000000000000000e-03 1.0000000000000000e-03
-1.0000000000000000e-03 1.0000000000000000e-03
-1.0000000000000000e-03 1.0000000000000000e-03
ITEM: ATOMS id vx vy vz 
1 29.0009 138.278 209.863 
2 16.2047 96.9823 -44.1202 
3 -16.3534 53.4389 81.528 
4 19.3616 578.25 290.693 
5 -24.7395 312.544 7.40368 
ITEM: TIMESTEP
30
ITEM: NUMBER OF ATOMS
5
ITEM: BOX BOUNDS mm mm mm
-1.0000000000000000e-03 1.0000000000000000e-03
-1.0000000000000000e-03 1.0000000000000000e-03
-1.0000000000000000e-03 1.0000000000000000e-03
ITEM: ATOMS id vx vy vz 
1 28.1501 173.195 215.701 
2 15.1071 115.477 -67.4799 
3 -16.0864 70.9818 64.6632 
4 19.3864 679.28 289.574 
5 -23.831 374.036 -17.3132 
ITEM: TIMESTEP
40
ITEM: NUMBER OF ATOMS
5
ITEM: BOX BOUNDS mm mm mm
-1.0000000000000000e-03 1.0000000000000000e-03
-1.0000000000000000e-03 1.0000000000000000e-03
-1.0000000000000000e-03 1.0000000000000000e-03
ITEM: ATOMS id vx vy vz 
1 27.2589 165.333 162.325 
2 14.0678 116.619 -96.7446 
3 -15.9569 76.971 27.7848 
4 19.3699 606.037 250.587 
5 -22.8115 336.835 -42.0291 
ITEM: TIMESTEP
50
ITEM: NUMBER OF ATOMS
5
ITEM: BOX BOUNDS mm mm mm
-1.0000000000000000e-03 1.0000000000000000e-03
-1.0000000000000000e-03 1.0000000000000000e-03
-1.0000000000000000e-03 1.0000000000000000e-03
ITEM: ATOMS id vx vy vz 
1 26.3317 118.897 80.7547 
2 13.1474 88.9694 -130.147 
3 -15.8814 69.7789 -19.448 
4 19.3776 359.093 249.045 
5 -21.6891 187.441 -43.6178 
ITEM: TIMESTEP
60
ITEM: NUMBER OF ATOMS
5
ITEM: BOX BOUNDS mm mm mm
-1.0000000000000000e-03 1.0000000000000000e-03
-1.0000000000000000e-03 1.0000000000000000e-03
-1.0000000000000000e-03 1.0000000000000000e-03
ITEM: ATOMS id vx vy vz 
1 25.3586 45.284 -7.10253 
2 12.2963 30.5476 -169.549 
3 -15.8547 48.6545 -70.7813 
4 19.3676 6.53103 309.603 
5 -20.5457 -43.7231 -22.1269 
ITEM: TIMESTEP
70
ITEM: NUMBER OF ATOMS
5
ITEM: BOX BOUNDS mm mm mm
-1.0000000000000000e-03 1.0000000000000000e-03
-1.0000000000000000e-03 1.0000000000000000e-03
-1.0000000000000000e-03 1.0000000000000000e-03
ITEM: ATOMS id vx vy vz 
1 24.3663 -36.2509 -93.8592 
2 11.5195 -45.445 -219.741 
3 -15.7812 17.377 -124.475 
4 19.3028 -333.155 396.638 
5 -19.4244 -284.432 -3.16128 
ITEM: TIMESTEP
80
ITEM: NUMBER OF ATOMS
5
ITEM: BOX BOUNDS mm mm mm
-1.0000000000000000e-03 1.0000000000000000e-03
-1.0000000000000000e-03 1.0000000000000000e-03
-1.0000000000000000e-03 1.0000000000000000e-03
ITEM: ATOMS id vx vy vz 
1 23.4175 -102.333 -175.877 
2 10.8024 -113.915 -280.351 
3 -15.6359 -13.6534 -178.607 
4 19.1531 -554.473 456.558 
5 -18.3477 -457.308 -12.5559 
ITEM: TIMESTEP
90
ITEM: NUMBER OF ATOMS
5
ITEM: BOX BOUNDS mm mm mm
-1.0000000000000000e-03 1.0000000000000000e-03
-1.0000000000000000e-03 1.0000000000000000e-03
-1.0000000000000000e-03 1.0000000000000000e-03
ITEM: ATOMS id vx vy vz 
1 22.5148 -131.913 -239.02 
2 10.1308 -147.5 -334.643 
3 -15.2948 -29.158 -223.981 
4 18.948 -625.133 461.609 
5 -17.4972 -522.046 -47.1356 
ITEM: TIMESTEP
100
ITEM: NUMBER OF ATOMS
5
ITEM: BOX BOUNDS mm mm mm
-1.0000000000000000e-03 1.0000000000000000e-03
-1.0000000000000000e-03 1.0000000000000000e-03
-1.0000000000000000e-03 1.0000000000000000e-03
ITEM: ATOMS id vx vy vz 
1 21.63 -110.784 -255.484 
2 9.46481 -124.683 -347.794 
3 -14.4033 -12.7924 -242.22 
4 18.7914 -589.706 415.742 
5 -17.3515 -487.265 -71.8519 
ITEM: TIMESTEP
110
ITEM: NUMBER OF ATOMS
5
ITEM: BOX BOUNDS mm mm mm
-1.0000000000000000e-03 1.0000000000000000e-03
-1.0000000000000000e-03 1.0000000000000000e-03
-1.0000000000000000e-03 1.0000000000000000e-03
ITEM: ATOMS id vx vy vz 
1 20.7848 -33.6167 -200.338 
2 8.84386 -34.4865 -285.989 
3 -11.7087 48.9624 -215.592 
4 18.7207 -523.877 337.066 
5 -19.107 -391.738 -46.4 
ITEM: TIMESTEP
120
ITEM: NUMBER OF ATOMS
5
ITEM: BOX BOUNDS mm mm mm
-1.0000000000000000e-03 1.0000000000000000e-03
-1.0000000000000000e-03 1.0000000000000000e-03
-1.0000000000000000e-03 1.0000000000000000e-03
ITEM: ATOMS id vx vy vz 
1 19.9069 93.0143 -79.1739 
2 8.20826 118.943 -149.554 
3 -8.77611 161.368 -147.537 
4 18.7174 -486.621 246.195 
5 -21.1448 -280.502 42.5247 
ITEM: TIMESTEP
130
ITEM: NUMBER OF ATOMS
5
ITEM: BOX BOUNDS mm mm mm
-1.0000000000000000e-03 1.0000000000000000e-03
-1.0000000000000000e-03 1.0000000000000000e-03
-1.0000000000000000e-03 1.0000000000000000e-03
ITEM: ATOMS id vx vy vz 
1 19.0113 248.074 60.6846 
2 7.56474 312.37 10.8892 
3 -7.83976 310.748 -68.5724 
4 18.7724 -499.629 163.784 
5 -21.2051 -185.803 164.556 
ITEM: TIMESTEP
140
ITEM: NUMBER OF ATOMS
5
ITEM: BOX BOUNDS mm mm mm
-1.0000000000000000e-03 1.0000000000000000e-03
-1.0000000000000000e-03 1.0000000000000000e-03
-1.0000000000000000e-03 1.0000000000000000e-03
ITEM: ATOMS id vx vy vz 
1 18.0924 398.073 157.338 
2 6.89323 504.193 124.053 
3 -7.61047 467.621 -19.186 
4 18.8472 -549.17 105.035 
5 -20.5544 -125.969 265.89 
ITEM: TIMESTEP
150
ITEM: NUMBER OF ATOMS
5
ITEM: BOX BOUNDS mm mm mm
-1.0000000000000000e-03 1.0000000000000000e-03
-1.0000000000000000e-03 1.0000000000000000e-03
-1.0000000000000000e-03 1.0000000000000000e-03
ITEM: ATOMS id vx vy vz 
1 17.1392 502.543 180.666 
2 6.17413 639.835 153.709 
3 -7.5826 585.468 -18.4959 
4 18.9494 -595.088 69.796 
5 -19.6696 -99.0132 307.117 
ITEM: TIMESTEP
160
ITEM: NUMBER OF ATOMS
5
ITEM: BOX BOUNDS mm mm mm
-1.0000000000000000e-03 1.0000000000000000e-03
-1.0000000000000000e-03 1.0000000000000000e-03
-1.0000000000000000e-03 1.0000000000000000e-03
ITEM: ATOMS id vx vy vz 
1 16.1363 520.802 152.687 
2 5.41219 661.529 126.524 
3 -7.58964 606.06 -45.0734 
4 19.0135 -581.998 39.7028 
5 -18.6555 -83.731 281.131 
ITEM: TIMESTEP
170
ITEM: NUMBER OF ATOMS
5
ITEM: BOX BOUNDS mm mm mm
-1.0000000000000000e-03 1.0000000000000000e-03
-1.0000000000000000e-03 1.0000000000000000e-03
-1.0000000000000000e-03 1.0000000000000000e-03
ITEM: ATOMS id vx vy vz 
1 15.1035 425.598 125.163 
2 4.60916 529.456 106.413 
3 -7.54856 481.503 -53.1713 
4 19.093 -461.651 -10.571 
5 -17.6252 -54.1938 204.564 
ITEM: TIMESTEP
180
ITEM: NUMBER OF ATOMS
5
ITEM: BOX BOUNDS mm mm mm
-1.0000000000000000e-03 1.0000000000000000e-03
-1.0000000000000000e-03 1.0000000000000000e-03
-1.0000000000000000e-03 1.0000000000000000e-03
ITEM: ATOMS id vx vy vz 
1 14.0473 225.132 137.259 
2 3.73896 254.294 140.359 
3 -7.47346 211.355 -12.5235 
4 19.2159 -226.852 -95.6572 
5 -16.6076 1.42859 100.862 
ITEM: TIMESTEP
190
ITEM: NUMBER OF ATOMS
5
ITEM: BOX BOUNDS mm mm mm
-1.0000000000000000e-03 1.0000000000000000e-03
-1.0000000000000000e-03 1.0000000000000000e-03
-1.0000000000000000e-03 1.0000000000000000e-03
ITEM: ATOMS id vx vy vz 
1 12.9829 -24.3016 188.251 
2 2.86801 -86.2644 221.977 
3 -7.39044 -134.535 61.9554 
4 19.3088 67.9227 -210.142 
5 -15.6083 71.6757 -9.34555 
ITEM: TIMESTEP
200
ITEM: NUMBER OF ATOMS
5
ITEM: BOX BOUNDS mm mm mm
-1.0000000000000000e-03 1.0000000000000000e-03
-1.0000000000000000e-03 1.0000000000000000e-03
-1.0000000000000000e-03 1.0000000000000000e-03
ITEM: ATOMS id vx vy vz 
1 11.9455 -239.86 244.857 
2 2.06378 -378.915 303.406 
3 -7.27481 -442.772 122.605 
4 19.4044 329.211 -331.412 
5 -14.6243 131.765 -109.787 
ITEM: TIMESTEP
210
ITEM: NUMBER OF ATOMS
5
ITEM: BOX BOUNDS mm mm mm
-1.0000000000000000e-03 1.0000000000000000e-03
-1.0000000000000000e-03 1.0000000000000000e-03
-1.0000000000000000e-03 1.0000000000000000e-03
ITEM: ATOMS id vx vy vz 
1 10.8452 -359.837 272.036 
2 1.38272 -541.092 340.559 
3 -7.1824 -622.186 134.906 
4 19.448 483.13 -429.373 
5 -13.6769 164.674 -187.284 
ITEM: TIMESTEP
220
ITEM: NUMBER OF ATOMS
5
ITEM: BOX BOUNDS mm mm mm
-1.0000000000000000e-03 1.0000000000000000e-03
-1.0000000000000000e-03 1.0000000000000000e-03
-1.0000000000000000e-03 1.0000000000000000e-03
ITEM: ATOMS id vx vy vz 
1 9.71738 -375.947 255.362 
2 0.817276 -564.072 323.071 
3 -6.9978 -651.57 108.252 
4 19.4116 521.323 -476.315 
5 -12.7702 175.811 -230.379 
ITEM: TIMESTEP
230
ITEM: NUMBER OF ATOMS
5
ITEM: BOX BOUNDS mm mm mm
-1.0000000000000000e-03 1.0000000000000000e-03
-1.0000000000000000e-03 1.0000000000000000e-03
-1.0000000000000000e-03 1.0000000000000000e-03
ITEM: ATOMS id vx vy vz 
1 8.55334 -323.632 200.313 
2 0.382412 -499.012 267.631 
3 -6.65207 -572.416 82.9491 
4 19.1634 497.103 -455.34 
5 -11.87 189.632 -230.538 
ITEM: TIMESTEP
240
ITEM: NUMBER OF ATOMS
5
ITEM: BOX BOUNDS mm mm mm
-1.0000000000000000e-03 1.0000000000000000e-03
-1.0000000000000000e-03 1.0000000000000000e-03
-1.0000000000000000e-03 1.0000000000000000e-03
ITEM: ATOMS id vx vy vz 
1 7.40514 -248.174 121.863 
2 0.0121614 -410.719 197.466 
3 -5.53886 -448.313 93.971 
4 18.4226 482.746 -369.172 
5 -11.2833 233.287 -188.924 
ITEM: TIMESTEP
250
ITEM: NUMBER OF ATOMS
5
ITEM: BOX BOUNDS mm mm mm
-1.0000000000000000e-03 1.0000000000000000e-03
-1.0000000000000000e-03 1.0000000000000000e-03
-1.0000000000000000e-03 1.0000000000000000e-03
ITEM: ATOMS id vx vy vz 
1 6.31627 -178.965 37.5135 
2 -0.331794 -342.747 130.815 
3 -2.11528 -333.239 145.297 
4 16.5743 526.391 -248.286 
5 -11.9451 321.6 -125.123 
ITEM: TIMESTEP
260
ITEM: NUMBER OF ATOMS
5
ITEM: BOX BOUNDS mm mm mm
-1.0000000000000000e-03 1.0000000000000000e-03
-1.0000000000000000e-03 1.0000000000000000e-03
-1.0000000000000000e-03 1.0000000000000000e-03
ITEM: ATOMS id vx vy vz 
1 5.27837 -125.328 -36.6236 
2 -0.695991 -308.965 78.5903 
3 -0.18083 -257.649 210.202 
4 13.9996 632.729 -144.263 
5 -10.4049 446.369 -72.8089 
ITEM: TIMESTEP
270
ITEM: NUMBER OF ATOMS
5
ITEM: BOX BOUNDS mm mm mm
-1.0000000000000000e-03 1.0000000000000000e-03
-1.0000000000000000e-03 1.0000000000000000e-03
-1.0000000000000000e-03 1.0000000000000000e-03
ITEM: ATOMS id vx vy vz 
1 4.35478 -85.9988 -90.8294 
2 -1.13767 -300.391 42.953 
3 0.237565 -222.925 252.473 
4 11.5352 762.623 -99.0701 
5 -7.4794 572.819 -57.9634 
ITEM: TIMESTEP
280
ITEM: NUMBER OF ATOMS
5
ITEM: BOX BOUNDS mm mm mm
-1.0000000000000000e-03 1.0000000000000000e-03
-1.0000000000000000e-03 1.0000000000000000e-03
-1.0000000000000000e-03 1.0000000000000000e-03
ITEM: ATOMS id vx vy vz 
1 3.57224 -59.5775 -125.752 
2 -1.6827 -294.515 15.9265 
3 0.305701 -209.22 251.23 
4 9.45264 844.439 -112.168 
5 -4.54496 646.866 -77.2919 
ITEM: TIMESTEP
290
ITEM: NUMBER OF ATOMS
5
ITEM: BOX BOUNDS mm mm mm
-1.0000000000000000e-03 1.0000000000000000e-03
-1.0000000000000000e-03 1.0000000000000000e-03
-1.0000000000000000e-03 1.0000000000000000e-03
ITEM: ATOMS id vx vy vz 
1 2.86934 -48.4526 -151.245 
2 -2.32867 -264.847 -17.9312 
3 0.279668 -183.854 204.401 
4 8.26679 794.099 -135.14 
5 -2.40061 607.236 -94.9291 
ITEM: TIMESTEP
300
ITEM: NUMBER OF ATOMS
5
ITEM: BOX BOUNDS mm mm mm
-1.0000000000000000e-03 1.0000000000000000e-03
-1.0000000000000000e-03 1.0000000000000000e-03
-1.0000000000000000e-03 1.0000000000000000e-03
ITEM: ATOMS id vx vy vz 
1 2.21493 -56.5101 -181.424 
2 -3.03743 -194.188 -73.8131 
3 0.243729 -120.862 121.706 
4 7.86045 557.544 -108.01 
5 -0.951238 417.242 -68.049 
ITEM: TIMESTEP
310
ITEM: NUMBER OF ATOMS
5
ITEM: BOX BOUNDS mm mm mm
-1.0000000000000000e-03 1.0000000000000000e-03
-1.0000000000000000e-03 1.0000000000000000e-03
-1.0000000000000000e-03 1.0000000000000000e-03
ITEM: ATOMS id vx vy vz 
1 1.58351 -84.2402 -229.487 
2 -3.75291 -88.5937 -158.092 
3 0.210335 -20.4708 17.7051 
4 7.82179 161.504 -11.3479 
5 0.141429 102.397 14.3606 
ITEM: TIMESTEP
320
ITEM: NUMBER OF ATOMS
5
ITEM: BOX BOUNDS mm mm mm
-1.0000000000000000e-03 1.0000000000000000e-03
-1.0000000000000000e-03 1.0000000000000000e-03
-1.0000000000000000e-03 1.0000000000000000e-03
ITEM: ATOMS id vx vy vz 
1 0.996035 -125.324 -302.65 
2 -4.47195 21.3247 -264.099 
3 0.190337 88.852 -90.9288 
4 7.8834 -277.712 111.167 
5 1.08991 -243.035 116.284 
ITEM: TIMESTEP
330
ITEM: NUMBER OF ATOMS
5
ITEM: BOX BOUNDS mm mm mm
-1.0000000000000000e-03 1.0000000000000000e-03
-1.0000000000000000e-03 1.0000000000000000e-03
-1.0000000000000000e-03 1.0000000000000000e-03
ITEM: ATOMS id vx vy vz 
1 0.404142 -166.718 -394.446 
2 -5.12806 99.9263 -372.656 
3 0.172165 170.774 -186.809 
4 7.91329 -615.741 191.554 
5 2.02367 -505.367 184.612 
ITEM: TIMESTEP
340
ITEM: NUMBER OF ATOMS
5
ITEM: BOX BOUNDS mm mm mm
-1.0000000000000000e-03 1.0000000000000000e-03
-1.0000000000000000e-03 1.0000000000000000e-03
-1.0000000000000000e-03 1.0000000000000000e-03
ITEM: ATOMS id vx vy vz 
1 -0.217588 -189.879 -475.559 
2 -5.67207 133.835 -454.107 
3 0.139478 208.599 -253.546 
4 7.775 -766.67 200.504 
5 2.99252 -619.777 194.741 
ITEM: TIMESTEP
350
ITEM: NUMBER OF ATOMS
5
ITEM: BOX BOUNDS mm mm mm
-1.0000000000000000e-03 1.0000000000000000e-03
-1.0000000000000000e-03 1.0000000000000000e-03
-1.0000000000000000e-03 1.0000000000000000e-03
ITEM: ATOMS id vx vy vz 
1 -0.839754 -173.451 -493.627 
2 -6.10904 143.785 -472.623 
3 0.174756 216.598 -277.338 
4 7.36969 -739.272 166.134 
5 4.11504 -596.654 164.301 
ITEM: TIMESTEP
360
ITEM: NUMBER OF ATOMS
5
ITEM: BOX BOUNDS mm mm mm
-1.0000000000000000e-03 1.0000000000000000e-03
-1.0000000000000000e-03 1.0000000000000000e-03
-1.0000000000000000e-03 1.0000000000000000e-03
ITEM: ATOMS id vx vy vz 
1 -1.51492 -99.7049 -396.412 
2 -6.43955 170.4 -399.749 
3 0.388549 227.81 -251.233 
4 6.68286 -604.047 139.275 
5 5.31446 -493.401 129.397 
ITEM: TIMESTEP
370
ITEM: NUMBER OF ATOMS
5
ITEM: BOX BOUNDS mm mm mm
-1.0000000000000000e-03 1.0000000000000000e-03
-1.0000000000000000e-03 1.0000000000000000e-03
-1.0000000000000000e-03 1.0000000000000000e-03
ITEM: ATOMS id vx vy vz 
1 -2.21848 33.1466 -176.983 
2 -6.70319 245.888 -239.721 
3 1.19141 271.402 -184.12 
4 5.546 -439.087 149.906 
5 6.32263 -370.767 115.035 
ITEM: TIMESTEP
380
ITEM: NUMBER OF ATOMS
5
ITEM: BOX BOUNDS mm mm mm
-1.0000000000000000e-03 1.0000000000000000e-03
-1.0000000000000000e-03 1.0000000000000000e-03
-1.0000000000000000e-03 1.0000000000000000e-03
ITEM: ATOMS id vx vy vz 
1 -2.91437 202.289 97.3193 
2 -6.93245 372.715 -45.534 
3 3.3872 356.935 -105.943 
4 3.31211 -298.65 190.328 
5 6.98273 -269.042 123.056 
ITEM: TIMESTEP
390
ITEM: NUMBER OF ATOMS
5
ITEM: BOX BOUNDS mm mm mm
-1.0000000000000000e-03 1.0000000000000000e-03
-1.0000000000000000e-03 1.0000000000000000e-03
-1.0000000000000000e-03 1.0000000000000000e-03
ITEM: ATOMS id vx vy vz 
1 -3.60972 365.698 318.485 
2 -7.12499 521.187 104.666 
3 5.18339 469.688 -54.0761 
4 0.57331 -207.409 229.304 
5 8.46935 -204.182 137.564 
ITEM: TIMESTEP
400
ITEM: NUMBER OF ATOMS
5
ITEM: BOX BOUNDS mm mm mm
-1.0000000000000000e-03 1.0000000000000000e-03
-1.0000000000000000e-03 1.0000000000000000e-03
-1.0000000000000000e-03 1.0000000000000000e-03
ITEM: ATOMS id vx vy vz 
1 -4.25782 478.836 415.915 
2 -7.31019 640.526 162.561 
3 5.58939 568.946 -47.6005 
4 -2.71761 -162.405 238.112 
5 11.8137 -171.065 140.687 
ITEM: TIMESTEP
410
ITEM: NUMBER OF ATOMS
5
ITEM: BOX BOUNDS mm mm mm
-1.0000000000000000e-03 1.0000000000000000e-03
-1.0000000000000000e-03 1.0000000000000000e-03
-1.0000000000000000e-03 1.0000000000000000e-03
ITEM: ATOMS id vx vy vz 
1 -4.81768 508.508 400.768 
2 -7.53371 673.197 143.987 
3 5.52242 599.13 -71.7659 
4 -8.48319 -142.79 207.292 
5 18.0607 -152.039 122.442 
ITEM: TIMESTEP
420
ITEM: NUMBER OF ATOMS
5
ITEM: BOX BOUNDS mm mm mm
-1.0000000000000000e-03 1.0000000000000000e-03
-1.0000000000000000e-03 1.0000000000000000e-03
-1.0000000000000000e-03 1.0000000000000000e-03
ITEM: ATOMS id vx vy vz 
1 -5.26504 440.371 339.647 
2 -7.88305 574.249 110.207 
3 5.32686 508.067 -86.8167 
4 -17.27 -121.963 144.034 
5 27.4732 -126.32 79.219 
ITEM: TIMESTEP
430
ITEM: NUMBER OF ATOMS
5
ITEM: BOX BOUNDS mm mm mm
-1.0000000000000000e-03 1.0000000000000000e-03
-1.0000000000000000e-03 1.0000000000000000e-03
-1.0000000000000000e-03 1.0000000000000000e-03
ITEM: ATOMS id vx vy vz 
1 -5.67188 287.342 297.3 
2 -8.32338 340.152 116.448 
3 5.10062 280.601 -60.8645 
4 -26.3488 -82.7881 60.6801 
5 37.2024 -81.9711 12.2524 
ITEM: TIMESTEP
440
ITEM: NUMBER OF ATOMS
5
ITEM: BOX BOUNDS mm mm mm
-1.0000000000000000e-03 1.0000000000000000e-03
-1.0000000000000000e-03 1.0000000000000000e-03
-1.0000000000000000e-03 1.0000000000000000e-03
ITEM: ATOMS id vx vy vz 
1 -6.06698 94.6617 298.432 
2 -8.82591 29.1707 171.017 
3 4.90069 -33.6835 0.0444392 
4 -33.0064 -27.5207 -32.6873 
5 44.5522 -23.9801 -71.3129 
ITEM: TIMESTEP
450
ITEM: NUMBER OF ATOMS
5
ITEM: BOX BOUNDS mm mm mm
-1.0000000000000000e-03 1.0000000000000000e-03
-1.0000000000000000e-03 1.0000000000000000e-03
-1.0000000000000000e-03 1.0000000000000000e-03
ITEM: ATOMS id vx vy vz 
1 -6.44645 -74.3985 327.236 
2 -9.31219 -257.833 237.288 
3 4.72182 -334.661 55.6854 
4 -37.0933 26.108 -126.029 
5 49.2992 29.419 -160.062 
ITEM: TIMESTEP
460
ITEM: NUMBER OF ATOMS
5
ITEM: BOX BOUNDS mm mm mm
-1.0000000000000000e-03 1.0000000000000000e-03
-1.0000000000000000e-03 1.0000000000000000e-03
-1.0000000000000000e-03 1.0000000000000000e-03
ITEM: ATOMS id vx vy vz 
1 -6.81749 -171.835 350.882 
2 -9.73703 -434.713 272.187 
3 4.57632 -528.359 70.3356 
4 -39.3657 61.1627 -206.036 
5 52.1269 62.4672 -238.855 
ITEM: TIMESTEP
470
ITEM: NUMBER OF ATOMS
5
ITEM: BOX BOUNDS mm mm mm
-1.0000000000000000e-03 1.0000000000000000e-03
-1.0000000000000000e-03 1.0000000000000000e-03
-1.0000000000000000e-03 1.0000000000000000e-03
ITEM: ATOMS id vx vy vz 
1 -7.24061 -190.305 340.805 
2 -10.0746 -477.017 259.696 
3 4.46837 -578.352 46.8397 
4 -40.4586 76.6151 -255.498 
5 53.7113 76.4636 -288.352 
ITEM: TIMESTEP
480
ITEM: NUMBER OF ATOMS
5
ITEM: BOX BOUNDS mm mm mm
-1.0000000000000000e-03 1.0000000000000000e-03
-1.0000000000000000e-03 1.0000000000000000e-03
-1.0000000000000000e-03 1.0000000000000000e-03
ITEM: ATOMS id vx vy vz 
1 -7.68836 -157.526 280.811 
2 -10.3664 -419.588 211.451 
3 4.48656 -509.568 21.7837 
4 -40.8354 89.0874 -256.618 
5 54.4346 90.577 -287.929 
ITEM: TIMESTEP
490
ITEM: NUMBER OF ATOMS
5
ITEM: BOX BOUNDS mm mm mm
-1.0000000000000000e-03 1.0000000000000000e-03
-1.0000000000000000e-03 1.0000000000000000e-03
-1.0000000000000000e-03 1.0000000000000000e-03
ITEM: ATOMS id vx vy vz 
1 -8.14707 -109.015 169.976 
2 -10.6182 -318.332 148.147 
3 4.81181 -375.402 31.7608 
4 -40.8279 120.729 -201.574 
5 54.48 128.546 -227.473 
ITEM: TIMESTEP
500
ITEM: NUMBER OF ATOMS
5
ITEM: BOX BOUNDS mm mm mm
-1.0000000000000000e-03 1.0000000000000000e-03
-1.0000000000000000e-03 1.0000000000000000e-03
-1.0000000000000000e-03 1.0000000000000000e-03
ITEM: ATOMS id vx vy vz 
1 -8.6149 -64.6763 25.8013 
2 -10.8614 -216.261 85.7431 
3 5.99134 -225.75 83.2868 
4 -40.6874 183.44 -105.971 
5 53.5487 201.714 -123.057 
ITEM: TIMESTEP
510
ITEM: NUMBER OF ATOMS
5
ITEM: BOX BOUNDS mm mm mm
-1.0000000000000000e-03 1.0000000000000000e-03
-1.0000000000000000e-03 1.0000000000000000e-03
-1.0000000000000000e-03 1.0000000000000000e-03
ITEM: ATOMS id vx vy vz 
1 -9.05873 -25.5951 -118.955 
2 -11.0505 -133.579 32.3528 
3 10.6479 -94.4942 152.624 
4 -40.4854 271.076 -9.31904 
5 49.0433 300.881 -20.9507 
ITEM: TIMESTEP
520
ITEM: NUMBER OF ATOMS
5
ITEM: BOX BOUNDS mm mm mm
-1.0000000000000000e-03 1.0000000000000000e-03
-1.0000000000000000e-03 1.0000000000000000e-03
-1.0000000000000000e-03 1.0000000000000000e-03
ITEM: ATOMS id vx vy vz 
1 -9.48019 12.9388 -231.103 
2 -11.1888 -74.9021 -9.92836 
3 14.042 -7.86686 200.022 
4 -40.0869 360.885 47.4024 
5 45.548 407.468 36.5974 
ITEM: TIMESTEP
530
ITEM: NUMBER OF ATOMS
5
ITEM: BOX BOUNDS mm mm mm
-1.0000000000000000e-03 1.0000000000000000e-03
-1.0000000000000000e-03 1.0000000000000000e-03
-1.0000000000000000e-03 1.0000000000000000e-03
ITEM: ATOMS id vx vy vz 
1 -9.87409 45.7974 -293.697 
2 -11.242 -39.7473 -43.0084 
3 14.4682 35.9792 200.404 
4 -39.4096 419.532 50.0656 
5 44.611 476.85 40.0659 
ITEM: TIMESTEP
540
ITEM: NUMBER OF ATOMS
5
ITEM: BOX BOUNDS mm mm mm
-1.0000000000000000e-03 1.0000000000000000e-03
-1.0000000000000000e-03 1.0000000000000000e-03
-1.0000000000000000e-03 1.0000000000000000e-03
ITEM: ATOMS id vx vy vz 
1 -10.1524 53.7008 -311.054 
2 -11.244 -28.1758 -71.5021 
3 14.3016 44.1533 163.156 
4 -38.4561 411.05 18.7 
5 43.8389 465.769 8.57336 
ITEM: TIMESTEP
550
ITEM: NUMBER OF ATOMS
5
ITEM: BOX BOUNDS mm mm mm
-1.0000000000000000e-03 1.0000000000000000e-03
-1.0000000000000000e-03 1.0000000000000000e-03
-1.0000000000000000e-03 1.0000000000000000e-03
ITEM: ATOMS id vx vy vz 
1 -10.3005 14.7339 -302.291 
2 -11.2139 -40.1202 -102.149 
3 13.9 27.1661 106.814 
4 -37.2695 311.279 -12.5434 
5 43.0287 346.594 -20.0619 
ITEM: TIMESTEP
560
ITEM: NUMBER OF ATOMS
5
ITEM: BOX BOUNDS mm mm mm
-1.0000000000000000e-03 1.0000000000000000e-03
-1.0000000000000000e-03 1.0000000000000000e-03
-1.0000000000000000e-03 1.0000000000000000e-03
ITEM: ATOMS id vx vy vz 
1 -10.3408 -76.0971 -292.682 
2 -11.2169 -71.9451 -143.158 
3 13.3643 -3.15702 45.7233 
4 -36.0032 128.455 -24.1012 
5 42.1407 130.294 -24.5706 
ITEM: TIMESTEP
570
ITEM: NUMBER OF ATOMS
5
ITEM: BOX BOUNDS mm mm mm
-1.0000000000000000e-03 1.0000000000000000e-03
-1.0000000000000000e-03 1.0000000000000000e-03
-1.0000000000000000e-03 1.0000000000000000e-03
ITEM: ATOMS id vx vy vz 
1 -10.3346 -196.445 -306.36 
2 -11.2201 -114.286 -201.278 
3 12.8108 -35.566 -14.6955 
4 -34.6639 -88.3365 -24.2732 
5 41.207 -124.098 -16.3452 
ITEM: TIMESTEP
580
ITEM: NUMBER OF ATOMS
5
ITEM: BOX BOUNDS mm mm mm
-1.0000000000000000e-03 1.0000000000000000e-03
-1.0000000000000000e-03 1.0000000000000000e-03
-1.0000000000000000e-03 1.0000000000000000e-03
ITEM: ATOMS id vx vy vz 
1 -10.3278 -305.876 -354.288 
2 -11.1795 -153.634 -274.882 
3 12.2578 -60.4858 -72.9195 
4 -33.313 -269.732 -35.3331 
5 40.2185 -335.034 -22.5353 
ITEM: TIMESTEP
590
ITEM: NUMBER OF ATOMS
5
ITEM: BOX BOUNDS mm mm mm
-1.0000000000000000e-03 1.0000000000000000e-03
-1.0000000000000000e-03 1.0000000000000000e-03
-1.0000000000000000e-03 1.0000000000000000e-03
ITEM: ATOMS id vx vy vz 
1 -10.3555 -366.435 -418.426 
2 -11.0576 -175.175 -345.287 
3 11.7837 -70.6113 -123.461 
4 -32.005 -363.735 -65.5452 
5 39.174 -443.016 -52.7291 
ITEM: TIMESTEP
600
ITEM: NUMBER OF ATOMS
5
ITEM: BOX BOUNDS mm mm mm
-1.0000000000000000e-03 1.0000000000000000e-03
-1.0000000000000000e-03 1.0000000000000000e-03
-1.0000000000000000e-03 1.0000000000000000e-03
ITEM: ATOMS id vx vy vz 
1 -10.4695 -356.54 -446.741 
2 -10.8722 -164.504 -374.607 
3 11.3781 -60.4398 -153.29 
4 -30.7411 -357.42 -95.2063 
5 38.0866 -435.997 -83.2707 
ITEM: TIMESTEP
610
ITEM: NUMBER OF ATOMS
5
ITEM: BOX BOUNDS mm mm mm
-1.0000000000000000e-03 1.0000000000000000e-03
-1.0000000000000000e-03 1.0000000000000000e-03
-1.0000000000000000e-03 1.0000000000000000e-03
ITEM: ATOMS id vx vy vz 
1 -10.6799 -272.827 -376.094 
2 -10.6723 -110.232 -321.243 
3 11.0657 -25.5898 -147.277 
4 -29.5234 -269.924 -91.0354 
5 37.0476 -339.855 -75.2026 
ITEM: TIMESTEP
620
ITEM: NUMBER OF ATOMS
5
ITEM: BOX BOUNDS mm mm mm
-1.0000000000000000e-03 1.0000000000000000e-03
-1.0000000000000000e-03 1.0000000000000000e-03
-1.0000000000000000e-03 1.0000000000000000e-03
ITEM: ATOMS id vx vy vz 
1 -10.9506 -129.572 -181.278 
2 -10.4606 -11.0205 -172.76 
3 10.7233 35.0751 -101.57 
4 -28.3484 -133.157 -36.4396 
5 36.1196 -194.643 -9.46696 
ITEM: TIMESTEP
630
ITEM: NUMBER OF ATOMS
5
ITEM: BOX BOUNDS mm mm mm
-1.0000000000000000e-03 1.0000000000000000e-03
-1.0000000000000000e-03 1.0000000000000000e-03
-1.0000000000000000e-03 1.0000000000000000e-03
ITEM: ATOMS id vx vy vz 
1 -11.2244 41.424 86.9232 
2 -10.2524 117.646 28.808 
3 10.1594 115.978 -33.7027 
4 -27.1476 20.5716 49.2645 
5 35.4604 -38.7573 91.8256 
ITEM: TIMESTEP
640
ITEM: NUMBER OF ATOMS
5
ITEM: BOX BOUNDS mm mm mm
-1.0000000000000000e-03 1.0000000000000000e-03
-1.0000000000000000e-03 1.0000000000000000e-03
-1.0000000000000000e-03 1.0000000000000000e-03
ITEM: ATOMS id vx vy vz 
1 -11.4866 198.15 323.915 
2 -10.0205 245.802 204.111 
3 9.01513 203.09 24.2933 
4 -25.9631 161.856 122.325 
5 35.3199 96.5314 178.835 
ITEM: TIMESTEP
650
ITEM: NUMBER OF ATOMS
5
ITEM: BOX BOUNDS mm mm mm
-1.0000000000000000e-03 1.0000000000000000e-03
-1.0000000000000000e-03 1.0000000000000000e-03
-1.0000000000000000e-03 1.0000000000000000e-03
ITEM: ATOMS id vx vy vz 
1 -11.6823 304.176 446.62 
2 -9.67686 340.419 291.251 
3 6.24385 275.908 47.8435 
4 -24.7994 264.191 148.936 
5 36.6622 188.091 211.972 
ITEM: TIMESTEP
660
ITEM: NUMBER OF ATOMS
5
ITEM: BOX BOUNDS mm mm mm
-1.0000000000000000e-03 1.0000000000000000e-03
-1.0000000000000000e-03 1.0000000000000000e-03
-1.0000000000000000e-03 1.0000000000000000e-03
ITEM: ATOMS id vx vy vz 
1 -11.6866 340.533 446.701 
2 -9.27393 375.586 285.514 
3 0.333445 310.855 34.9848 
4 -23.6252 303.992 129.341 
5 40.8828 220.12 189.782 
ITEM: TIMESTEP
670
ITEM: NUMBER OF ATOMS
5
ITEM: BOX BOUNDS mm mm mm
-1.0000000000000000e-03 1.0000000000000000e-03
-1.0000000000000000e-03 1.0000000000000000e-03
-1.0000000000000000e-03 1.0000000000000000e-03
ITEM: ATOMS id vx vy vz 
1 -11.3039 306.553 376.041 
2 -8.79853 337.563 229.126 
3 -6.03407 283.296 2.09071 
4 -22.4658 264.591 91.3594 
5 45.1297 188.249 142.55 
ITEM: TIMESTEP
680
ITEM: NUMBER OF ATOMS
5
ITEM: BOX BOUNDS mm mm mm
-1.0000000000000000e-03 1.0000000000000000e-03
-1.0000000000000000e-03 1.0000000000000000e-03
-1.0000000000000000e-03 1.0000000000000000e-03
ITEM: ATOMS id vx vy vz 
1 -10.4813 217.141 295.923 
2 -8.33357 230.145 170.863 
3 -9.77589 181.261 -27.0122 
4 -21.3276 147.437 63.4017 
5 46.3225 102.826 96.8984 
ITEM: TIMESTEP
690
ITEM: NUMBER OF ATOMS
5
ITEM: BOX BOUNDS mm mm mm
-1.0000000000000000e-03 1.0000000000000000e-03
-1.0000000000000000e-03 1.0000000000000000e-03
-1.0000000000000000e-03 1.0000000000000000e-03
ITEM: ATOMS id vx vy vz 
1 -9.26513 101.234 240.582 
2 -7.88357 80.9861 134.548 
3 -11.8899 25.0998 -44.5921 
4 -20.1833 -17.1914 52.7155 
5 45.5238 -12.3132 61.6618 
ITEM: TIMESTEP
700
ITEM: NUMBER OF ATOMS
5
ITEM: BOX BOUNDS mm mm mm
-1.0000000000000000e-03 1.0000000000000000e-03
-1.0000000000000000e-03 1.0000000000000000e-03
-1.0000000000000000e-03 1.0000000000000000e-03
ITEM: ATOMS id vx vy vz 
1 -7.92515 -4.18459 212.145 
2 -7.46253 -63.7061 115.246 
3 -13.299 -137.155 -62.7944 
4 -19.0297 -176.577 45.3769 
5 43.8665 -121.512 30.6216 
ITEM: TIMESTEP
710
ITEM: NUMBER OF ATOMS
5
ITEM: BOX BOUNDS mm mm mm
-1.0000000000000000e-03 1.0000000000000000e-03
-1.0000000000000000e-03 1.0000000000000000e-03
-1.0000000000000000e-03 1.0000000000000000e-03
ITEM: ATOMS id vx vy vz 
1 -6.77152 -69.194 195.367 
2 -7.05647 -160.317 96.4799 
3 -14.3279 -253.216 -94.3696 
4 -17.8817 -281.562 25.544 
5 42.1129 -192.618 -4.56219 
ITEM: TIMESTEP
720
ITEM: NUMBER OF ATOMS
5
ITEM: BOX BOUNDS mm mm mm
-1.0000000000000000e-03 1.0000000000000000e-03
-1.0000000000000000e-03 1.0000000000000000e-03
-1.0000000000000000e-03 1.0000000000000000e-03
ITEM: ATOMS id vx vy vz 
1 -6.16843 -84.6307 173.244 
2 -6.67997 -189.298 69.273 
3 -15.0691 -292.139 -132.619 
4 -16.7792 -311.309 -5.9738 
5 40.64 -211.519 -40.9363 
ITEM: TIMESTEP
730
ITEM: NUMBER OF ATOMS
5
ITEM: BOX BOUNDS mm mm mm
-1.0000000000000000e-03 1.0000000000000000e-03
-1.0000000000000000e-03 1.0000000000000000e-03
-1.0000000000000000e-03 1.0000000000000000e-03
ITEM: ATOMS id vx vy vz 
1 -6.05758 -61.3931 134.469 
2 -6.37497 -157.846 37.1893 
3 -15.5487 -251.674 -150.087 
4 -15.689 -275.682 -30.6327 
5 39.4462 -183.237 -63.2426 
ITEM: TIMESTEP
740
ITEM: NUMBER OF ATOMS
5
ITEM: BOX BOUNDS mm mm mm
-1.0000000000000000e-03 1.0000000000000000e-03
-1.0000000000000000e-03 1.0000000000000000e-03
-1.0000000000000000e-03 1.0000000000000000e-03
ITEM: ATOMS id vx vy vz 
1 -6.22536 -17.1417 75.0797 
2 -6.13416 -86.1788 8.55668 
3 -15.7866 -148.19 -119.611 
4 -14.5945 -199.704 -28.1037 
5 38.4044 -122.33 -56.2356 
ITEM: TIMESTEP
750
ITEM: NUMBER OF ATOMS
5
ITEM: BOX BOUNDS mm mm mm
-1.0000000000000000e-03 1.0000000000000000e-03
-1.0000000000000000e-03 1.0000000000000000e-03
-1.0000000000000000e-03 1.0000000000000000e-03
ITEM: ATOMS id vx vy vz 
1 -6.50796 36.29 -0.818116 
2 -5.94338 6.6346 -13.3853 
3 -15.8571 -5.57522 -41.5208 
4 -13.5042 -108.411 5.36247 
5 37.3381 -44.6853 -19.7193 
ITEM: TIMESTEP
760
ITEM: NUMBER OF ATOMS
5
ITEM: BOX BOUNDS mm mm mm
-1.0000000000000000e-03 1.0000000000000000e-03
-1.0000000000000000e-03 1.0000000000000000e-03
-1.0000000000000000e-03 1.0000000000000000e-03
ITEM: ATOMS id vx vy vz 
1 -6.81941 95.207 -81.7142 
2 -5.77422 106.549 -33.3656 
3 -15.8473 148.915 49.1125 
4 -12.4419 -21.2461 51.5668 
5 36.2583 35.0139 27.049 
ITEM: TIMESTEP
770
ITEM: NUMBER OF ATOMS
5
ITEM: BOX BOUNDS mm mm mm
-1.0000000000000000e-03 1.0000000000000000e-03
-1.0000000000000000e-03 1.0000000000000000e-03
-1.0000000000000000e-03 1.0000000000000000e-03
ITEM: ATOMS id vx vy vz 
1 -7.12257 155.954 -153.202 
2 -5.54062 199.383 -58.4074 
3 -15.8123 285.362 106.851 
4 -11.3864 48.1792 83.2131 
5 35.1463 103.168 57.4551 
ITEM: TIMESTEP
780
ITEM: NUMBER OF ATOMS
5
ITEM: BOX BOUNDS mm mm mm
-1.0000000000000000e-03 1.0000000000000000e-03
-1.0000000000000000e-03 1.0000000000000000e-03
-1.0000000000000000e-03 1.0000000000000000e-03
ITEM: ATOMS id vx vy vz 
1 -7.35822 204.4 -203.609 
2 -5.25986 263.864 -88.9688 
3 -15.7806 371.612 111.343 
4 -10.3243 91.0004 83.1744 
5 33.9216 147.085 56.0469 
ITEM: TIMESTEP
790
ITEM: NUMBER OF ATOMS
5
ITEM: BOX BOUNDS mm mm mm
-1.0000000000000000e-03 1.0000000000000000e-03
-1.0000000000000000e-03 1.0000000000000000e-03
-1.0000000000000000e-03 1.0000000000000000e-03
ITEM: ATOMS id vx vy vz 
1 -7.49144 213.155 -226.979 